SLURMTMPDIR is /scratch/11647435
The Intel compilers are in your path. This is adequate for compiling and
running most codes. Source
/util/academic/intel/17.0/compilers_and_libraries_2017/linux/bin/compilervars.sh
for more features. 
 Intel-MPI is in your path. This is adequate for compiling and running most
codes. Source the
/util/academic/intel/17.0/compilers_and_libraries_2017/linux/mpi/intel64/bin/mpivars.sh
file for more features. 
 The MKL Libraries are in your library path. This is adequate for compiling and
running most codes. Source $MKL/bin/mklvars.sh" for more features. 

     Program PWSCF v.6.2 (svn rev. 14038) starts on  7Jul2019 at  3:32:49 

     This program is part of the open-source Quantum ESPRESSO suite
     for quantum simulation of materials; please cite
         "P. Giannozzi et al., J. Phys.:Condens. Matter 21 395502 (2009);
         "P. Giannozzi et al., J. Phys.:Condens. Matter 29 465901 (2017);
          URL http://www.quantum-espresso.org", 
     in publications or presentations arising from this work. More details at
     http://www.quantum-espresso.org/quote

     Parallel version (MPI), running on    32 processors

     MPI processes distributed on     1 nodes
     K-points division:     npool     =       8
     R & G space division:  proc/nbgrp/npool/nimage =       4
     Reading input from scf2.inp

     Current dimensions of program PWSCF are:
     Max number of different atomic species (ntypx) = 10
     Max number of k-points (npk) =  40000
     Max angular momentum in pseudopotentials (lmaxx) =  3
               file C.pbe-n-kjpaw_psl.1.0.0.UPF: wavefunction(s)  2S 2P renormalized

     Subspace diagonalization in iterative solution of the eigenvalue problem:
     a serial algorithm will be used

 
     Parallelization info
     --------------------
     sticks:   dense  smooth     PW     G-vecs:    dense   smooth      PW
     Min         624     624    188                11153    11153    1837
     Max         625     625    189                11154    11154    1838
     Sum        2497    2497    755                44615    44615    7349
 


     bravais-lattice index     =            0
     lattice parameter (alat)  =      13.6319  a.u.
     unit-cell volume          =     508.8287 (a.u.)^3
     number of atoms/cell      =           12
     number of atomic types    =            1
     number of electrons       =        48.00
     number of Kohn-Sham states=           29
     kinetic-energy cutoff     =      75.0000  Ry
     charge density cutoff     =     300.0000  Ry
     convergence threshold     =      1.0E-09
     mixing beta               =       0.7000
     number of iterations used =            8  plain     mixing
     Exchange-correlation      = SLA PW PBX PBC ( 1  4  3  4 0 0)

     celldm(1)=  13.631913  celldm(2)=   0.000000  celldm(3)=   0.000000
     celldm(4)=   0.000000  celldm(5)=   0.000000  celldm(6)=   0.000000

     crystal axes: (cart. coord. in units of alat)
               a(1) = (   1.000000   0.000000   0.000000 )  
               a(2) = (  -0.173923   0.563558   0.000000 )  
               a(3) = (   0.000000   0.000000   0.356421 )  

     reciprocal axes: (cart. coord. in units 2 pi/alat)
               b(1) = (  1.000000  0.308617  0.000000 )  
               b(2) = (  0.000000  1.774441  0.000000 )  
               b(3) = (  0.000000  0.000000  2.805673 )  


     PseudoPot. # 1 for C  read from file:
     ./C.pbe-n-kjpaw_psl.1.0.0.UPF
     MD5 check sum: ecdf03482cb4269f2fcfa842d572f30f
     Pseudo is Projector augmented-wave + core cor, Zval =  4.0
     Generated using "atomic" code by A. Dal Corso v.6.3
     Shape of augmentation charge: PSQ
     Using radial grid of 1073 points,  4 beta functions with: 
                l(1) =   0
                l(2) =   0
                l(3) =   1
                l(4) =   1
     Q(r) pseudized with 0 coefficients 


     atomic species   valence    mass     pseudopotential
        C              4.00    12.01100     C ( 1.00)

      4 Sym. Ops., with inversion, found


                                    s                        frac. trans.

      isym =  1     identity                                     

 cryst.   s( 1) = (     1          0          0      )
                  (     0          1          0      )
                  (     0          0          1      )

 cart.    s( 1) = (  1.0000000  0.0000000  0.0000000 )
                  (  0.0000000  1.0000000  0.0000000 )
                  (  0.0000000  0.0000000  1.0000000 )


      isym =  2     180 deg rotation - cart. axis [0,0,1]        

 cryst.   s( 2) = (    -1          0          0      )
                  (     0         -1          0      )
                  (     0          0          1      )

 cart.    s( 2) = ( -1.0000000  0.0000000  0.0000000 )
                  (  0.0000000 -1.0000000  0.0000000 )
                  (  0.0000000  0.0000000  1.0000000 )


      isym =  3     inversion                                    

 cryst.   s( 3) = (    -1          0          0      )
                  (     0         -1          0      )
                  (     0          0         -1      )

 cart.    s( 3) = ( -1.0000000  0.0000000  0.0000000 )
                  (  0.0000000 -1.0000000  0.0000000 )
                  (  0.0000000  0.0000000 -1.0000000 )


      isym =  4     inv. 180 deg rotation - cart. axis [0,0,1]   

 cryst.   s( 4) = (     1          0          0      )
                  (     0          1          0      )
                  (     0          0         -1      )

 cart.    s( 4) = (  1.0000000  0.0000000  0.0000000 )
                  (  0.0000000  1.0000000  0.0000000 )
                  (  0.0000000  0.0000000 -1.0000000 )


   Cartesian axes

     site n.     atom                  positions (alat units)
         1           C   tau(   1) = (   0.7718514   0.0431234   0.1782103  )
         2           C   tau(   2) = (   0.6619110   0.3993595   0.1782103  )
         3           C   tau(   3) = (   0.1641657   0.1641981   0.1782103  )
         4           C   tau(   4) = (   0.0542254   0.5204342   0.1782103  )
         5           C   tau(   5) = (   0.8413530   0.1461587   0.0000000  )
         6           C   tau(   6) = (   0.0486858   0.2101450   0.0000000  )
         7           C   tau(   7) = (   0.7773910   0.3534126   0.0000000  )
         8           C   tau(   8) = (  -0.0152763   0.4173990   0.0000000  )
         9           C   tau(   9) = (   0.2621424   0.4914110   0.1782103  )
        10           C   tau(  10) = (   0.3195649   0.3053468   0.1782103  )
        11           C   tau(  11) = (   0.5065118   0.2582108   0.1782103  )
        12           C   tau(  12) = (   0.5639343   0.0721466   0.1782103  )

   Crystallographic axes

     site n.     atom                  positions (cryst. coord.)
         1           C   tau(   1) = (  0.7851600  0.0765200  0.5000000  )
         2           C   tau(   2) = (  0.7851600  0.7086400  0.5000000  )
         3           C   tau(   3) = (  0.2148400  0.2913600  0.5000000  )
         4           C   tau(   4) = (  0.2148400  0.9234800  0.5000000  )
         5           C   tau(   5) = (  0.8864600  0.2593500  0.0000000  )
         6           C   tau(   6) = (  0.1135400  0.3728900  0.0000000  )
         7           C   tau(   7) = (  0.8864600  0.6271100  0.0000000  )
         8           C   tau(   8) = (  0.1135400  0.7406500  0.0000000  )
         9           C   tau(   9) = (  0.4138000  0.8719800  0.5000000  )
        10           C   tau(  10) = (  0.4138000  0.5418200  0.5000000  )
        11           C   tau(  11) = (  0.5862000  0.4581800  0.5000000  )
        12           C   tau(  12) = (  0.5862000  0.1280200  0.5000000  )

     number of k points=   450  Methfessel-Paxton smearing, width (Ry)=  0.0300
                       cart. coord. in units 2pi/alat
        k(    1) = (   0.0000000   0.0000000   0.0000000), wk =   0.0013021
        k(    2) = (   0.0000000   0.0000000   0.1753546), wk =   0.0026042
        k(    3) = (   0.0000000   0.0000000   0.3507092), wk =   0.0026042
        k(    4) = (   0.0000000   0.0000000   0.5260638), wk =   0.0026042
        k(    5) = (   0.0000000   0.0000000   0.7014184), wk =   0.0026042
        k(    6) = (   0.0000000   0.0000000   0.8767729), wk =   0.0026042
        k(    7) = (   0.0000000   0.0000000   1.0521275), wk =   0.0026042
        k(    8) = (   0.0000000   0.0000000   1.2274821), wk =   0.0026042
        k(    9) = (   0.0000000   0.0000000  -1.4028367), wk =   0.0013021
        k(   10) = (   0.0000000   0.1478701   0.0000000), wk =   0.0026042
        k(   11) = (   0.0000000   0.1478701   0.1753546), wk =   0.0052083
        k(   12) = (   0.0000000   0.1478701   0.3507092), wk =   0.0052083
        k(   13) = (   0.0000000   0.1478701   0.5260638), wk =   0.0052083
        k(   14) = (   0.0000000   0.1478701   0.7014184), wk =   0.0052083
        k(   15) = (   0.0000000   0.1478701   0.8767729), wk =   0.0052083
        k(   16) = (   0.0000000   0.1478701   1.0521275), wk =   0.0052083
        k(   17) = (   0.0000000   0.1478701   1.2274821), wk =   0.0052083
        k(   18) = (   0.0000000   0.1478701  -1.4028367), wk =   0.0026042
        k(   19) = (   0.0000000   0.2957402   0.0000000), wk =   0.0026042
        k(   20) = (   0.0000000   0.2957402   0.1753546), wk =   0.0052083
        k(   21) = (   0.0000000   0.2957402   0.3507092), wk =   0.0052083
        k(   22) = (   0.0000000   0.2957402   0.5260638), wk =   0.0052083
        k(   23) = (   0.0000000   0.2957402   0.7014184), wk =   0.0052083
        k(   24) = (   0.0000000   0.2957402   0.8767729), wk =   0.0052083
        k(   25) = (   0.0000000   0.2957402   1.0521275), wk =   0.0052083
        k(   26) = (   0.0000000   0.2957402   1.2274821), wk =   0.0052083
        k(   27) = (   0.0000000   0.2957402  -1.4028367), wk =   0.0026042
        k(   28) = (   0.0000000   0.4436104   0.0000000), wk =   0.0026042
        k(   29) = (   0.0000000   0.4436104   0.1753546), wk =   0.0052083
        k(   30) = (   0.0000000   0.4436104   0.3507092), wk =   0.0052083
        k(   31) = (   0.0000000   0.4436104   0.5260638), wk =   0.0052083
        k(   32) = (   0.0000000   0.4436104   0.7014184), wk =   0.0052083
        k(   33) = (   0.0000000   0.4436104   0.8767729), wk =   0.0052083
        k(   34) = (   0.0000000   0.4436104   1.0521275), wk =   0.0052083
        k(   35) = (   0.0000000   0.4436104   1.2274821), wk =   0.0052083
        k(   36) = (   0.0000000   0.4436104  -1.4028367), wk =   0.0026042
        k(   37) = (   0.0000000   0.5914805   0.0000000), wk =   0.0026042
        k(   38) = (   0.0000000   0.5914805   0.1753546), wk =   0.0052083
        k(   39) = (   0.0000000   0.5914805   0.3507092), wk =   0.0052083
        k(   40) = (   0.0000000   0.5914805   0.5260638), wk =   0.0052083
        k(   41) = (   0.0000000   0.5914805   0.7014184), wk =   0.0052083
        k(   42) = (   0.0000000   0.5914805   0.8767729), wk =   0.0052083
        k(   43) = (   0.0000000   0.5914805   1.0521275), wk =   0.0052083
        k(   44) = (   0.0000000   0.5914805   1.2274821), wk =   0.0052083
        k(   45) = (   0.0000000   0.5914805  -1.4028367), wk =   0.0026042
        k(   46) = (   0.0000000   0.7393506   0.0000000), wk =   0.0026042
        k(   47) = (   0.0000000   0.7393506   0.1753546), wk =   0.0052083
        k(   48) = (   0.0000000   0.7393506   0.3507092), wk =   0.0052083
        k(   49) = (   0.0000000   0.7393506   0.5260638), wk =   0.0052083
        k(   50) = (   0.0000000   0.7393506   0.7014184), wk =   0.0052083
        k(   51) = (   0.0000000   0.7393506   0.8767729), wk =   0.0052083
        k(   52) = (   0.0000000   0.7393506   1.0521275), wk =   0.0052083
        k(   53) = (   0.0000000   0.7393506   1.2274821), wk =   0.0052083
        k(   54) = (   0.0000000   0.7393506  -1.4028367), wk =   0.0026042
        k(   55) = (   0.0000000  -0.8872207   0.0000000), wk =   0.0013021
        k(   56) = (   0.0000000  -0.8872207   0.1753546), wk =   0.0026042
        k(   57) = (   0.0000000  -0.8872207   0.3507092), wk =   0.0026042
        k(   58) = (   0.0000000  -0.8872207   0.5260638), wk =   0.0026042
        k(   59) = (   0.0000000  -0.8872207   0.7014184), wk =   0.0026042
        k(   60) = (   0.0000000  -0.8872207   0.8767729), wk =   0.0026042
        k(   61) = (   0.0000000  -0.8872207   1.0521275), wk =   0.0026042
        k(   62) = (   0.0000000  -0.8872207   1.2274821), wk =   0.0026042
        k(   63) = (   0.0000000  -0.8872207  -1.4028367), wk =   0.0013021
        k(   64) = (   0.1250000   0.0385771   0.0000000), wk =   0.0026042
        k(   65) = (   0.1250000   0.0385771   0.1753546), wk =   0.0052083
        k(   66) = (   0.1250000   0.0385771   0.3507092), wk =   0.0052083
        k(   67) = (   0.1250000   0.0385771   0.5260638), wk =   0.0052083
        k(   68) = (   0.1250000   0.0385771   0.7014184), wk =   0.0052083
        k(   69) = (   0.1250000   0.0385771   0.8767729), wk =   0.0052083
        k(   70) = (   0.1250000   0.0385771   1.0521275), wk =   0.0052083
        k(   71) = (   0.1250000   0.0385771   1.2274821), wk =   0.0052083
        k(   72) = (   0.1250000   0.0385771  -1.4028367), wk =   0.0026042
        k(   73) = (   0.1250000   0.1864472   0.0000000), wk =   0.0026042
        k(   74) = (   0.1250000   0.1864472   0.1753546), wk =   0.0052083
        k(   75) = (   0.1250000   0.1864472   0.3507092), wk =   0.0052083
        k(   76) = (   0.1250000   0.1864472   0.5260638), wk =   0.0052083
        k(   77) = (   0.1250000   0.1864472   0.7014184), wk =   0.0052083
        k(   78) = (   0.1250000   0.1864472   0.8767729), wk =   0.0052083
        k(   79) = (   0.1250000   0.1864472   1.0521275), wk =   0.0052083
        k(   80) = (   0.1250000   0.1864472   1.2274821), wk =   0.0052083
        k(   81) = (   0.1250000   0.1864472  -1.4028367), wk =   0.0026042
        k(   82) = (   0.1250000   0.3343173   0.0000000), wk =   0.0026042
        k(   83) = (   0.1250000   0.3343173   0.1753546), wk =   0.0052083
        k(   84) = (   0.1250000   0.3343173   0.3507092), wk =   0.0052083
        k(   85) = (   0.1250000   0.3343173   0.5260638), wk =   0.0052083
        k(   86) = (   0.1250000   0.3343173   0.7014184), wk =   0.0052083
        k(   87) = (   0.1250000   0.3343173   0.8767729), wk =   0.0052083
        k(   88) = (   0.1250000   0.3343173   1.0521275), wk =   0.0052083
        k(   89) = (   0.1250000   0.3343173   1.2274821), wk =   0.0052083
        k(   90) = (   0.1250000   0.3343173  -1.4028367), wk =   0.0026042
        k(   91) = (   0.1250000   0.4821874   0.0000000), wk =   0.0026042
        k(   92) = (   0.1250000   0.4821874   0.1753546), wk =   0.0052083
        k(   93) = (   0.1250000   0.4821874   0.3507092), wk =   0.0052083
        k(   94) = (   0.1250000   0.4821874   0.5260638), wk =   0.0052083
        k(   95) = (   0.1250000   0.4821874   0.7014184), wk =   0.0052083
        k(   96) = (   0.1250000   0.4821874   0.8767729), wk =   0.0052083
        k(   97) = (   0.1250000   0.4821874   1.0521275), wk =   0.0052083
        k(   98) = (   0.1250000   0.4821874   1.2274821), wk =   0.0052083
        k(   99) = (   0.1250000   0.4821874  -1.4028367), wk =   0.0026042
        k(  100) = (   0.1250000   0.6300576   0.0000000), wk =   0.0026042
        k(  101) = (   0.1250000   0.6300576   0.1753546), wk =   0.0052083
        k(  102) = (   0.1250000   0.6300576   0.3507092), wk =   0.0052083
        k(  103) = (   0.1250000   0.6300576   0.5260638), wk =   0.0052083
        k(  104) = (   0.1250000   0.6300576   0.7014184), wk =   0.0052083
        k(  105) = (   0.1250000   0.6300576   0.8767729), wk =   0.0052083
        k(  106) = (   0.1250000   0.6300576   1.0521275), wk =   0.0052083
        k(  107) = (   0.1250000   0.6300576   1.2274821), wk =   0.0052083
        k(  108) = (   0.1250000   0.6300576  -1.4028367), wk =   0.0026042
        k(  109) = (   0.1250000   0.7779277   0.0000000), wk =   0.0026042
        k(  110) = (   0.1250000   0.7779277   0.1753546), wk =   0.0052083
        k(  111) = (   0.1250000   0.7779277   0.3507092), wk =   0.0052083
        k(  112) = (   0.1250000   0.7779277   0.5260638), wk =   0.0052083
        k(  113) = (   0.1250000   0.7779277   0.7014184), wk =   0.0052083
        k(  114) = (   0.1250000   0.7779277   0.8767729), wk =   0.0052083
        k(  115) = (   0.1250000   0.7779277   1.0521275), wk =   0.0052083
        k(  116) = (   0.1250000   0.7779277   1.2274821), wk =   0.0052083
        k(  117) = (   0.1250000   0.7779277  -1.4028367), wk =   0.0026042
        k(  118) = (   0.1250000  -0.8486436   0.0000000), wk =   0.0026042
        k(  119) = (   0.1250000  -0.8486436   0.1753546), wk =   0.0052083
        k(  120) = (   0.1250000  -0.8486436   0.3507092), wk =   0.0052083
        k(  121) = (   0.1250000  -0.8486436   0.5260638), wk =   0.0052083
        k(  122) = (   0.1250000  -0.8486436   0.7014184), wk =   0.0052083
        k(  123) = (   0.1250000  -0.8486436   0.8767729), wk =   0.0052083
        k(  124) = (   0.1250000  -0.8486436   1.0521275), wk =   0.0052083
        k(  125) = (   0.1250000  -0.8486436   1.2274821), wk =   0.0052083
        k(  126) = (   0.1250000  -0.8486436  -1.4028367), wk =   0.0026042
        k(  127) = (   0.1250000  -0.7007735   0.0000000), wk =   0.0026042
        k(  128) = (   0.1250000  -0.7007735   0.1753546), wk =   0.0052083
        k(  129) = (   0.1250000  -0.7007735   0.3507092), wk =   0.0052083
        k(  130) = (   0.1250000  -0.7007735   0.5260638), wk =   0.0052083
        k(  131) = (   0.1250000  -0.7007735   0.7014184), wk =   0.0052083
        k(  132) = (   0.1250000  -0.7007735   0.8767729), wk =   0.0052083
        k(  133) = (   0.1250000  -0.7007735   1.0521275), wk =   0.0052083
        k(  134) = (   0.1250000  -0.7007735   1.2274821), wk =   0.0052083
        k(  135) = (   0.1250000  -0.7007735  -1.4028367), wk =   0.0026042
        k(  136) = (   0.1250000  -0.5529034   0.0000000), wk =   0.0026042
        k(  137) = (   0.1250000  -0.5529034   0.1753546), wk =   0.0052083
        k(  138) = (   0.1250000  -0.5529034   0.3507092), wk =   0.0052083
        k(  139) = (   0.1250000  -0.5529034   0.5260638), wk =   0.0052083
        k(  140) = (   0.1250000  -0.5529034   0.7014184), wk =   0.0052083
        k(  141) = (   0.1250000  -0.5529034   0.8767729), wk =   0.0052083
        k(  142) = (   0.1250000  -0.5529034   1.0521275), wk =   0.0052083
        k(  143) = (   0.1250000  -0.5529034   1.2274821), wk =   0.0052083
        k(  144) = (   0.1250000  -0.5529034  -1.4028367), wk =   0.0026042
        k(  145) = (   0.1250000  -0.4050333   0.0000000), wk =   0.0026042
        k(  146) = (   0.1250000  -0.4050333   0.1753546), wk =   0.0052083
        k(  147) = (   0.1250000  -0.4050333   0.3507092), wk =   0.0052083
        k(  148) = (   0.1250000  -0.4050333   0.5260638), wk =   0.0052083
        k(  149) = (   0.1250000  -0.4050333   0.7014184), wk =   0.0052083
        k(  150) = (   0.1250000  -0.4050333   0.8767729), wk =   0.0052083
        k(  151) = (   0.1250000  -0.4050333   1.0521275), wk =   0.0052083
        k(  152) = (   0.1250000  -0.4050333   1.2274821), wk =   0.0052083
        k(  153) = (   0.1250000  -0.4050333  -1.4028367), wk =   0.0026042
        k(  154) = (   0.1250000  -0.2571632   0.0000000), wk =   0.0026042
        k(  155) = (   0.1250000  -0.2571632   0.1753546), wk =   0.0052083
        k(  156) = (   0.1250000  -0.2571632   0.3507092), wk =   0.0052083
        k(  157) = (   0.1250000  -0.2571632   0.5260638), wk =   0.0052083
        k(  158) = (   0.1250000  -0.2571632   0.7014184), wk =   0.0052083
        k(  159) = (   0.1250000  -0.2571632   0.8767729), wk =   0.0052083
        k(  160) = (   0.1250000  -0.2571632   1.0521275), wk =   0.0052083
        k(  161) = (   0.1250000  -0.2571632   1.2274821), wk =   0.0052083
        k(  162) = (   0.1250000  -0.2571632  -1.4028367), wk =   0.0026042
        k(  163) = (   0.1250000  -0.1092930   0.0000000), wk =   0.0026042
        k(  164) = (   0.1250000  -0.1092930   0.1753546), wk =   0.0052083
        k(  165) = (   0.1250000  -0.1092930   0.3507092), wk =   0.0052083
        k(  166) = (   0.1250000  -0.1092930   0.5260638), wk =   0.0052083
        k(  167) = (   0.1250000  -0.1092930   0.7014184), wk =   0.0052083
        k(  168) = (   0.1250000  -0.1092930   0.8767729), wk =   0.0052083
        k(  169) = (   0.1250000  -0.1092930   1.0521275), wk =   0.0052083
        k(  170) = (   0.1250000  -0.1092930   1.2274821), wk =   0.0052083
        k(  171) = (   0.1250000  -0.1092930  -1.4028367), wk =   0.0026042
        k(  172) = (   0.2500000   0.0771542   0.0000000), wk =   0.0026042
        k(  173) = (   0.2500000   0.0771542   0.1753546), wk =   0.0052083
        k(  174) = (   0.2500000   0.0771542   0.3507092), wk =   0.0052083
        k(  175) = (   0.2500000   0.0771542   0.5260638), wk =   0.0052083
        k(  176) = (   0.2500000   0.0771542   0.7014184), wk =   0.0052083
        k(  177) = (   0.2500000   0.0771542   0.8767729), wk =   0.0052083
        k(  178) = (   0.2500000   0.0771542   1.0521275), wk =   0.0052083
        k(  179) = (   0.2500000   0.0771542   1.2274821), wk =   0.0052083
        k(  180) = (   0.2500000   0.0771542  -1.4028367), wk =   0.0026042
        k(  181) = (   0.2500000   0.2250243   0.0000000), wk =   0.0026042
        k(  182) = (   0.2500000   0.2250243   0.1753546), wk =   0.0052083
        k(  183) = (   0.2500000   0.2250243   0.3507092), wk =   0.0052083
        k(  184) = (   0.2500000   0.2250243   0.5260638), wk =   0.0052083
        k(  185) = (   0.2500000   0.2250243   0.7014184), wk =   0.0052083
        k(  186) = (   0.2500000   0.2250243   0.8767729), wk =   0.0052083
        k(  187) = (   0.2500000   0.2250243   1.0521275), wk =   0.0052083
        k(  188) = (   0.2500000   0.2250243   1.2274821), wk =   0.0052083
        k(  189) = (   0.2500000   0.2250243  -1.4028367), wk =   0.0026042
        k(  190) = (   0.2500000   0.3728944   0.0000000), wk =   0.0026042
        k(  191) = (   0.2500000   0.3728944   0.1753546), wk =   0.0052083
        k(  192) = (   0.2500000   0.3728944   0.3507092), wk =   0.0052083
        k(  193) = (   0.2500000   0.3728944   0.5260638), wk =   0.0052083
        k(  194) = (   0.2500000   0.3728944   0.7014184), wk =   0.0052083
        k(  195) = (   0.2500000   0.3728944   0.8767729), wk =   0.0052083
        k(  196) = (   0.2500000   0.3728944   1.0521275), wk =   0.0052083
        k(  197) = (   0.2500000   0.3728944   1.2274821), wk =   0.0052083
        k(  198) = (   0.2500000   0.3728944  -1.4028367), wk =   0.0026042
        k(  199) = (   0.2500000   0.5207645   0.0000000), wk =   0.0026042
        k(  200) = (   0.2500000   0.5207645   0.1753546), wk =   0.0052083
        k(  201) = (   0.2500000   0.5207645   0.3507092), wk =   0.0052083
        k(  202) = (   0.2500000   0.5207645   0.5260638), wk =   0.0052083
        k(  203) = (   0.2500000   0.5207645   0.7014184), wk =   0.0052083
        k(  204) = (   0.2500000   0.5207645   0.8767729), wk =   0.0052083
        k(  205) = (   0.2500000   0.5207645   1.0521275), wk =   0.0052083
        k(  206) = (   0.2500000   0.5207645   1.2274821), wk =   0.0052083
        k(  207) = (   0.2500000   0.5207645  -1.4028367), wk =   0.0026042
        k(  208) = (   0.2500000   0.6686346   0.0000000), wk =   0.0026042
        k(  209) = (   0.2500000   0.6686346   0.1753546), wk =   0.0052083
        k(  210) = (   0.2500000   0.6686346   0.3507092), wk =   0.0052083
        k(  211) = (   0.2500000   0.6686346   0.5260638), wk =   0.0052083
        k(  212) = (   0.2500000   0.6686346   0.7014184), wk =   0.0052083
        k(  213) = (   0.2500000   0.6686346   0.8767729), wk =   0.0052083
        k(  214) = (   0.2500000   0.6686346   1.0521275), wk =   0.0052083
        k(  215) = (   0.2500000   0.6686346   1.2274821), wk =   0.0052083
        k(  216) = (   0.2500000   0.6686346  -1.4028367), wk =   0.0026042
        k(  217) = (   0.2500000   0.8165048   0.0000000), wk =   0.0026042
        k(  218) = (   0.2500000   0.8165048   0.1753546), wk =   0.0052083
        k(  219) = (   0.2500000   0.8165048   0.3507092), wk =   0.0052083
        k(  220) = (   0.2500000   0.8165048   0.5260638), wk =   0.0052083
        k(  221) = (   0.2500000   0.8165048   0.7014184), wk =   0.0052083
        k(  222) = (   0.2500000   0.8165048   0.8767729), wk =   0.0052083
        k(  223) = (   0.2500000   0.8165048   1.0521275), wk =   0.0052083
        k(  224) = (   0.2500000   0.8165048   1.2274821), wk =   0.0052083
        k(  225) = (   0.2500000   0.8165048  -1.4028367), wk =   0.0026042
        k(  226) = (   0.2500000  -0.8100666   0.0000000), wk =   0.0026042
        k(  227) = (   0.2500000  -0.8100666   0.1753546), wk =   0.0052083
        k(  228) = (   0.2500000  -0.8100666   0.3507092), wk =   0.0052083
        k(  229) = (   0.2500000  -0.8100666   0.5260638), wk =   0.0052083
        k(  230) = (   0.2500000  -0.8100666   0.7014184), wk =   0.0052083
        k(  231) = (   0.2500000  -0.8100666   0.8767729), wk =   0.0052083
        k(  232) = (   0.2500000  -0.8100666   1.0521275), wk =   0.0052083
        k(  233) = (   0.2500000  -0.8100666   1.2274821), wk =   0.0052083
        k(  234) = (   0.2500000  -0.8100666  -1.4028367), wk =   0.0026042
        k(  235) = (   0.2500000  -0.6621964   0.0000000), wk =   0.0026042
        k(  236) = (   0.2500000  -0.6621964   0.1753546), wk =   0.0052083
        k(  237) = (   0.2500000  -0.6621964   0.3507092), wk =   0.0052083
        k(  238) = (   0.2500000  -0.6621964   0.5260638), wk =   0.0052083
        k(  239) = (   0.2500000  -0.6621964   0.7014184), wk =   0.0052083
        k(  240) = (   0.2500000  -0.6621964   0.8767729), wk =   0.0052083
        k(  241) = (   0.2500000  -0.6621964   1.0521275), wk =   0.0052083
        k(  242) = (   0.2500000  -0.6621964   1.2274821), wk =   0.0052083
        k(  243) = (   0.2500000  -0.6621964  -1.4028367), wk =   0.0026042
        k(  244) = (   0.2500000  -0.5143263   0.0000000), wk =   0.0026042
        k(  245) = (   0.2500000  -0.5143263   0.1753546), wk =   0.0052083
        k(  246) = (   0.2500000  -0.5143263   0.3507092), wk =   0.0052083
        k(  247) = (   0.2500000  -0.5143263   0.5260638), wk =   0.0052083
        k(  248) = (   0.2500000  -0.5143263   0.7014184), wk =   0.0052083
        k(  249) = (   0.2500000  -0.5143263   0.8767729), wk =   0.0052083
        k(  250) = (   0.2500000  -0.5143263   1.0521275), wk =   0.0052083
        k(  251) = (   0.2500000  -0.5143263   1.2274821), wk =   0.0052083
        k(  252) = (   0.2500000  -0.5143263  -1.4028367), wk =   0.0026042
        k(  253) = (   0.2500000  -0.3664562   0.0000000), wk =   0.0026042
        k(  254) = (   0.2500000  -0.3664562   0.1753546), wk =   0.0052083
        k(  255) = (   0.2500000  -0.3664562   0.3507092), wk =   0.0052083
        k(  256) = (   0.2500000  -0.3664562   0.5260638), wk =   0.0052083
        k(  257) = (   0.2500000  -0.3664562   0.7014184), wk =   0.0052083
        k(  258) = (   0.2500000  -0.3664562   0.8767729), wk =   0.0052083
        k(  259) = (   0.2500000  -0.3664562   1.0521275), wk =   0.0052083
        k(  260) = (   0.2500000  -0.3664562   1.2274821), wk =   0.0052083
        k(  261) = (   0.2500000  -0.3664562  -1.4028367), wk =   0.0026042
        k(  262) = (   0.2500000  -0.2185861   0.0000000), wk =   0.0026042
        k(  263) = (   0.2500000  -0.2185861   0.1753546), wk =   0.0052083
        k(  264) = (   0.2500000  -0.2185861   0.3507092), wk =   0.0052083
        k(  265) = (   0.2500000  -0.2185861   0.5260638), wk =   0.0052083
        k(  266) = (   0.2500000  -0.2185861   0.7014184), wk =   0.0052083
        k(  267) = (   0.2500000  -0.2185861   0.8767729), wk =   0.0052083
        k(  268) = (   0.2500000  -0.2185861   1.0521275), wk =   0.0052083
        k(  269) = (   0.2500000  -0.2185861   1.2274821), wk =   0.0052083
        k(  270) = (   0.2500000  -0.2185861  -1.4028367), wk =   0.0026042
        k(  271) = (   0.2500000  -0.0707160   0.0000000), wk =   0.0026042
        k(  272) = (   0.2500000  -0.0707160   0.1753546), wk =   0.0052083
        k(  273) = (   0.2500000  -0.0707160   0.3507092), wk =   0.0052083
        k(  274) = (   0.2500000  -0.0707160   0.5260638), wk =   0.0052083
        k(  275) = (   0.2500000  -0.0707160   0.7014184), wk =   0.0052083
        k(  276) = (   0.2500000  -0.0707160   0.8767729), wk =   0.0052083
        k(  277) = (   0.2500000  -0.0707160   1.0521275), wk =   0.0052083
        k(  278) = (   0.2500000  -0.0707160   1.2274821), wk =   0.0052083
        k(  279) = (   0.2500000  -0.0707160  -1.4028367), wk =   0.0026042
        k(  280) = (   0.3750000   0.1157312   0.0000000), wk =   0.0026042
        k(  281) = (   0.3750000   0.1157312   0.1753546), wk =   0.0052083
        k(  282) = (   0.3750000   0.1157312   0.3507092), wk =   0.0052083
        k(  283) = (   0.3750000   0.1157312   0.5260638), wk =   0.0052083
        k(  284) = (   0.3750000   0.1157312   0.7014184), wk =   0.0052083
        k(  285) = (   0.3750000   0.1157312   0.8767729), wk =   0.0052083
        k(  286) = (   0.3750000   0.1157312   1.0521275), wk =   0.0052083
        k(  287) = (   0.3750000   0.1157312   1.2274821), wk =   0.0052083
        k(  288) = (   0.3750000   0.1157312  -1.4028367), wk =   0.0026042
        k(  289) = (   0.3750000   0.2636013   0.0000000), wk =   0.0026042
        k(  290) = (   0.3750000   0.2636013   0.1753546), wk =   0.0052083
        k(  291) = (   0.3750000   0.2636013   0.3507092), wk =   0.0052083
        k(  292) = (   0.3750000   0.2636013   0.5260638), wk =   0.0052083
        k(  293) = (   0.3750000   0.2636013   0.7014184), wk =   0.0052083
        k(  294) = (   0.3750000   0.2636013   0.8767729), wk =   0.0052083
        k(  295) = (   0.3750000   0.2636013   1.0521275), wk =   0.0052083
        k(  296) = (   0.3750000   0.2636013   1.2274821), wk =   0.0052083
        k(  297) = (   0.3750000   0.2636013  -1.4028367), wk =   0.0026042
        k(  298) = (   0.3750000   0.4114715   0.0000000), wk =   0.0026042
        k(  299) = (   0.3750000   0.4114715   0.1753546), wk =   0.0052083
        k(  300) = (   0.3750000   0.4114715   0.3507092), wk =   0.0052083
        k(  301) = (   0.3750000   0.4114715   0.5260638), wk =   0.0052083
        k(  302) = (   0.3750000   0.4114715   0.7014184), wk =   0.0052083
        k(  303) = (   0.3750000   0.4114715   0.8767729), wk =   0.0052083
        k(  304) = (   0.3750000   0.4114715   1.0521275), wk =   0.0052083
        k(  305) = (   0.3750000   0.4114715   1.2274821), wk =   0.0052083
        k(  306) = (   0.3750000   0.4114715  -1.4028367), wk =   0.0026042
        k(  307) = (   0.3750000   0.5593416   0.0000000), wk =   0.0026042
        k(  308) = (   0.3750000   0.5593416   0.1753546), wk =   0.0052083
        k(  309) = (   0.3750000   0.5593416   0.3507092), wk =   0.0052083
        k(  310) = (   0.3750000   0.5593416   0.5260638), wk =   0.0052083
        k(  311) = (   0.3750000   0.5593416   0.7014184), wk =   0.0052083
        k(  312) = (   0.3750000   0.5593416   0.8767729), wk =   0.0052083
        k(  313) = (   0.3750000   0.5593416   1.0521275), wk =   0.0052083
        k(  314) = (   0.3750000   0.5593416   1.2274821), wk =   0.0052083
        k(  315) = (   0.3750000   0.5593416  -1.4028367), wk =   0.0026042
        k(  316) = (   0.3750000   0.7072117   0.0000000), wk =   0.0026042
        k(  317) = (   0.3750000   0.7072117   0.1753546), wk =   0.0052083
        k(  318) = (   0.3750000   0.7072117   0.3507092), wk =   0.0052083
        k(  319) = (   0.3750000   0.7072117   0.5260638), wk =   0.0052083
        k(  320) = (   0.3750000   0.7072117   0.7014184), wk =   0.0052083
        k(  321) = (   0.3750000   0.7072117   0.8767729), wk =   0.0052083
        k(  322) = (   0.3750000   0.7072117   1.0521275), wk =   0.0052083
        k(  323) = (   0.3750000   0.7072117   1.2274821), wk =   0.0052083
        k(  324) = (   0.3750000   0.7072117  -1.4028367), wk =   0.0026042
        k(  325) = (   0.3750000   0.8550818   0.0000000), wk =   0.0026042
        k(  326) = (   0.3750000   0.8550818   0.1753546), wk =   0.0052083
        k(  327) = (   0.3750000   0.8550818   0.3507092), wk =   0.0052083
        k(  328) = (   0.3750000   0.8550818   0.5260638), wk =   0.0052083
        k(  329) = (   0.3750000   0.8550818   0.7014184), wk =   0.0052083
        k(  330) = (   0.3750000   0.8550818   0.8767729), wk =   0.0052083
        k(  331) = (   0.3750000   0.8550818   1.0521275), wk =   0.0052083
        k(  332) = (   0.3750000   0.8550818   1.2274821), wk =   0.0052083
        k(  333) = (   0.3750000   0.8550818  -1.4028367), wk =   0.0026042
        k(  334) = (   0.3750000  -0.7714895   0.0000000), wk =   0.0026042
        k(  335) = (   0.3750000  -0.7714895   0.1753546), wk =   0.0052083
        k(  336) = (   0.3750000  -0.7714895   0.3507092), wk =   0.0052083
        k(  337) = (   0.3750000  -0.7714895   0.5260638), wk =   0.0052083
        k(  338) = (   0.3750000  -0.7714895   0.7014184), wk =   0.0052083
        k(  339) = (   0.3750000  -0.7714895   0.8767729), wk =   0.0052083
        k(  340) = (   0.3750000  -0.7714895   1.0521275), wk =   0.0052083
        k(  341) = (   0.3750000  -0.7714895   1.2274821), wk =   0.0052083
        k(  342) = (   0.3750000  -0.7714895  -1.4028367), wk =   0.0026042
        k(  343) = (   0.3750000  -0.6236194   0.0000000), wk =   0.0026042
        k(  344) = (   0.3750000  -0.6236194   0.1753546), wk =   0.0052083
        k(  345) = (   0.3750000  -0.6236194   0.3507092), wk =   0.0052083
        k(  346) = (   0.3750000  -0.6236194   0.5260638), wk =   0.0052083
        k(  347) = (   0.3750000  -0.6236194   0.7014184), wk =   0.0052083
        k(  348) = (   0.3750000  -0.6236194   0.8767729), wk =   0.0052083
        k(  349) = (   0.3750000  -0.6236194   1.0521275), wk =   0.0052083
        k(  350) = (   0.3750000  -0.6236194   1.2274821), wk =   0.0052083
        k(  351) = (   0.3750000  -0.6236194  -1.4028367), wk =   0.0026042
        k(  352) = (   0.3750000  -0.4757492   0.0000000), wk =   0.0026042
        k(  353) = (   0.3750000  -0.4757492   0.1753546), wk =   0.0052083
        k(  354) = (   0.3750000  -0.4757492   0.3507092), wk =   0.0052083
        k(  355) = (   0.3750000  -0.4757492   0.5260638), wk =   0.0052083
        k(  356) = (   0.3750000  -0.4757492   0.7014184), wk =   0.0052083
        k(  357) = (   0.3750000  -0.4757492   0.8767729), wk =   0.0052083
        k(  358) = (   0.3750000  -0.4757492   1.0521275), wk =   0.0052083
        k(  359) = (   0.3750000  -0.4757492   1.2274821), wk =   0.0052083
        k(  360) = (   0.3750000  -0.4757492  -1.4028367), wk =   0.0026042
        k(  361) = (   0.3750000  -0.3278791   0.0000000), wk =   0.0026042
        k(  362) = (   0.3750000  -0.3278791   0.1753546), wk =   0.0052083
        k(  363) = (   0.3750000  -0.3278791   0.3507092), wk =   0.0052083
        k(  364) = (   0.3750000  -0.3278791   0.5260638), wk =   0.0052083
        k(  365) = (   0.3750000  -0.3278791   0.7014184), wk =   0.0052083
        k(  366) = (   0.3750000  -0.3278791   0.8767729), wk =   0.0052083
        k(  367) = (   0.3750000  -0.3278791   1.0521275), wk =   0.0052083
        k(  368) = (   0.3750000  -0.3278791   1.2274821), wk =   0.0052083
        k(  369) = (   0.3750000  -0.3278791  -1.4028367), wk =   0.0026042
        k(  370) = (   0.3750000  -0.1800090   0.0000000), wk =   0.0026042
        k(  371) = (   0.3750000  -0.1800090   0.1753546), wk =   0.0052083
        k(  372) = (   0.3750000  -0.1800090   0.3507092), wk =   0.0052083
        k(  373) = (   0.3750000  -0.1800090   0.5260638), wk =   0.0052083
        k(  374) = (   0.3750000  -0.1800090   0.7014184), wk =   0.0052083
        k(  375) = (   0.3750000  -0.1800090   0.8767729), wk =   0.0052083
        k(  376) = (   0.3750000  -0.1800090   1.0521275), wk =   0.0052083
        k(  377) = (   0.3750000  -0.1800090   1.2274821), wk =   0.0052083
        k(  378) = (   0.3750000  -0.1800090  -1.4028367), wk =   0.0026042
        k(  379) = (   0.3750000  -0.0321389   0.0000000), wk =   0.0026042
        k(  380) = (   0.3750000  -0.0321389   0.1753546), wk =   0.0052083
        k(  381) = (   0.3750000  -0.0321389   0.3507092), wk =   0.0052083
        k(  382) = (   0.3750000  -0.0321389   0.5260638), wk =   0.0052083
        k(  383) = (   0.3750000  -0.0321389   0.7014184), wk =   0.0052083
        k(  384) = (   0.3750000  -0.0321389   0.8767729), wk =   0.0052083
        k(  385) = (   0.3750000  -0.0321389   1.0521275), wk =   0.0052083
        k(  386) = (   0.3750000  -0.0321389   1.2274821), wk =   0.0052083
        k(  387) = (   0.3750000  -0.0321389  -1.4028367), wk =   0.0026042
        k(  388) = (  -0.5000000  -0.1543083   0.0000000), wk =   0.0013021
        k(  389) = (  -0.5000000  -0.1543083   0.1753546), wk =   0.0026042
        k(  390) = (  -0.5000000  -0.1543083   0.3507092), wk =   0.0026042
        k(  391) = (  -0.5000000  -0.1543083   0.5260638), wk =   0.0026042
        k(  392) = (  -0.5000000  -0.1543083   0.7014184), wk =   0.0026042
        k(  393) = (  -0.5000000  -0.1543083   0.8767729), wk =   0.0026042
        k(  394) = (  -0.5000000  -0.1543083   1.0521275), wk =   0.0026042
        k(  395) = (  -0.5000000  -0.1543083   1.2274821), wk =   0.0026042
        k(  396) = (  -0.5000000  -0.1543083  -1.4028367), wk =   0.0013021
        k(  397) = (  -0.5000000  -0.0064382   0.0000000), wk =   0.0026042
        k(  398) = (  -0.5000000  -0.0064382   0.1753546), wk =   0.0052083
        k(  399) = (  -0.5000000  -0.0064382   0.3507092), wk =   0.0052083
        k(  400) = (  -0.5000000  -0.0064382   0.5260638), wk =   0.0052083
        k(  401) = (  -0.5000000  -0.0064382   0.7014184), wk =   0.0052083
        k(  402) = (  -0.5000000  -0.0064382   0.8767729), wk =   0.0052083
        k(  403) = (  -0.5000000  -0.0064382   1.0521275), wk =   0.0052083
        k(  404) = (  -0.5000000  -0.0064382   1.2274821), wk =   0.0052083
        k(  405) = (  -0.5000000  -0.0064382  -1.4028367), wk =   0.0026042
        k(  406) = (  -0.5000000   0.1414319   0.0000000), wk =   0.0026042
        k(  407) = (  -0.5000000   0.1414319   0.1753546), wk =   0.0052083
        k(  408) = (  -0.5000000   0.1414319   0.3507092), wk =   0.0052083
        k(  409) = (  -0.5000000   0.1414319   0.5260638), wk =   0.0052083
        k(  410) = (  -0.5000000   0.1414319   0.7014184), wk =   0.0052083
        k(  411) = (  -0.5000000   0.1414319   0.8767729), wk =   0.0052083
        k(  412) = (  -0.5000000   0.1414319   1.0521275), wk =   0.0052083
        k(  413) = (  -0.5000000   0.1414319   1.2274821), wk =   0.0052083
        k(  414) = (  -0.5000000   0.1414319  -1.4028367), wk =   0.0026042
        k(  415) = (  -0.5000000   0.2893021   0.0000000), wk =   0.0026042
        k(  416) = (  -0.5000000   0.2893021   0.1753546), wk =   0.0052083
        k(  417) = (  -0.5000000   0.2893021   0.3507092), wk =   0.0052083
        k(  418) = (  -0.5000000   0.2893021   0.5260638), wk =   0.0052083
        k(  419) = (  -0.5000000   0.2893021   0.7014184), wk =   0.0052083
        k(  420) = (  -0.5000000   0.2893021   0.8767729), wk =   0.0052083
        k(  421) = (  -0.5000000   0.2893021   1.0521275), wk =   0.0052083
        k(  422) = (  -0.5000000   0.2893021   1.2274821), wk =   0.0052083
        k(  423) = (  -0.5000000   0.2893021  -1.4028367), wk =   0.0026042
        k(  424) = (  -0.5000000   0.4371722   0.0000000), wk =   0.0026042
        k(  425) = (  -0.5000000   0.4371722   0.1753546), wk =   0.0052083
        k(  426) = (  -0.5000000   0.4371722   0.3507092), wk =   0.0052083
        k(  427) = (  -0.5000000   0.4371722   0.5260638), wk =   0.0052083
        k(  428) = (  -0.5000000   0.4371722   0.7014184), wk =   0.0052083
        k(  429) = (  -0.5000000   0.4371722   0.8767729), wk =   0.0052083
        k(  430) = (  -0.5000000   0.4371722   1.0521275), wk =   0.0052083
        k(  431) = (  -0.5000000   0.4371722   1.2274821), wk =   0.0052083
        k(  432) = (  -0.5000000   0.4371722  -1.4028367), wk =   0.0026042
        k(  433) = (  -0.5000000   0.5850423   0.0000000), wk =   0.0026042
        k(  434) = (  -0.5000000   0.5850423   0.1753546), wk =   0.0052083
        k(  435) = (  -0.5000000   0.5850423   0.3507092), wk =   0.0052083
        k(  436) = (  -0.5000000   0.5850423   0.5260638), wk =   0.0052083
        k(  437) = (  -0.5000000   0.5850423   0.7014184), wk =   0.0052083
        k(  438) = (  -0.5000000   0.5850423   0.8767729), wk =   0.0052083
        k(  439) = (  -0.5000000   0.5850423   1.0521275), wk =   0.0052083
        k(  440) = (  -0.5000000   0.5850423   1.2274821), wk =   0.0052083
        k(  441) = (  -0.5000000   0.5850423  -1.4028367), wk =   0.0026042
        k(  442) = (  -0.5000000  -1.0415290   0.0000000), wk =   0.0013021
        k(  443) = (  -0.5000000  -1.0415290   0.1753546), wk =   0.0026042
        k(  444) = (  -0.5000000  -1.0415290   0.3507092), wk =   0.0026042
        k(  445) = (  -0.5000000  -1.0415290   0.5260638), wk =   0.0026042
        k(  446) = (  -0.5000000  -1.0415290   0.7014184), wk =   0.0026042
        k(  447) = (  -0.5000000  -1.0415290   0.8767729), wk =   0.0026042
        k(  448) = (  -0.5000000  -1.0415290   1.0521275), wk =   0.0026042
        k(  449) = (  -0.5000000  -1.0415290   1.2274821), wk =   0.0026042
        k(  450) = (  -0.5000000  -1.0415290  -1.4028367), wk =   0.0013021

                       cryst. coord.
        k(    1) = (   0.0000000   0.0000000   0.0000000), wk =   0.0013021
        k(    2) = (   0.0000000   0.0000000   0.0625000), wk =   0.0026042
        k(    3) = (   0.0000000   0.0000000   0.1250000), wk =   0.0026042
        k(    4) = (   0.0000000   0.0000000   0.1875000), wk =   0.0026042
        k(    5) = (   0.0000000   0.0000000   0.2500000), wk =   0.0026042
        k(    6) = (   0.0000000   0.0000000   0.3125000), wk =   0.0026042
        k(    7) = (   0.0000000   0.0000000   0.3750000), wk =   0.0026042
        k(    8) = (   0.0000000   0.0000000   0.4375000), wk =   0.0026042
        k(    9) = (   0.0000000   0.0000000  -0.5000000), wk =   0.0013021
        k(   10) = (   0.0000000   0.0833333   0.0000000), wk =   0.0026042
        k(   11) = (   0.0000000   0.0833333   0.0625000), wk =   0.0052083
        k(   12) = (   0.0000000   0.0833333   0.1250000), wk =   0.0052083
        k(   13) = (   0.0000000   0.0833333   0.1875000), wk =   0.0052083
        k(   14) = (   0.0000000   0.0833333   0.2500000), wk =   0.0052083
        k(   15) = (   0.0000000   0.0833333   0.3125000), wk =   0.0052083
        k(   16) = (   0.0000000   0.0833333   0.3750000), wk =   0.0052083
        k(   17) = (   0.0000000   0.0833333   0.4375000), wk =   0.0052083
        k(   18) = (   0.0000000   0.0833333  -0.5000000), wk =   0.0026042
        k(   19) = (   0.0000000   0.1666667   0.0000000), wk =   0.0026042
        k(   20) = (   0.0000000   0.1666667   0.0625000), wk =   0.0052083
        k(   21) = (   0.0000000   0.1666667   0.1250000), wk =   0.0052083
        k(   22) = (   0.0000000   0.1666667   0.1875000), wk =   0.0052083
        k(   23) = (   0.0000000   0.1666667   0.2500000), wk =   0.0052083
        k(   24) = (   0.0000000   0.1666667   0.3125000), wk =   0.0052083
        k(   25) = (   0.0000000   0.1666667   0.3750000), wk =   0.0052083
        k(   26) = (   0.0000000   0.1666667   0.4375000), wk =   0.0052083
        k(   27) = (   0.0000000   0.1666667  -0.5000000), wk =   0.0026042
        k(   28) = (   0.0000000   0.2500000   0.0000000), wk =   0.0026042
        k(   29) = (   0.0000000   0.2500000   0.0625000), wk =   0.0052083
        k(   30) = (   0.0000000   0.2500000   0.1250000), wk =   0.0052083
        k(   31) = (   0.0000000   0.2500000   0.1875000), wk =   0.0052083
        k(   32) = (   0.0000000   0.2500000   0.2500000), wk =   0.0052083
        k(   33) = (   0.0000000   0.2500000   0.3125000), wk =   0.0052083
        k(   34) = (   0.0000000   0.2500000   0.3750000), wk =   0.0052083
        k(   35) = (   0.0000000   0.2500000   0.4375000), wk =   0.0052083
        k(   36) = (   0.0000000   0.2500000  -0.5000000), wk =   0.0026042
        k(   37) = (   0.0000000   0.3333333   0.0000000), wk =   0.0026042
        k(   38) = (   0.0000000   0.3333333   0.0625000), wk =   0.0052083
        k(   39) = (   0.0000000   0.3333333   0.1250000), wk =   0.0052083
        k(   40) = (   0.0000000   0.3333333   0.1875000), wk =   0.0052083
        k(   41) = (   0.0000000   0.3333333   0.2500000), wk =   0.0052083
        k(   42) = (   0.0000000   0.3333333   0.3125000), wk =   0.0052083
        k(   43) = (   0.0000000   0.3333333   0.3750000), wk =   0.0052083
        k(   44) = (   0.0000000   0.3333333   0.4375000), wk =   0.0052083
        k(   45) = (   0.0000000   0.3333333  -0.5000000), wk =   0.0026042
        k(   46) = (   0.0000000   0.4166667   0.0000000), wk =   0.0026042
        k(   47) = (   0.0000000   0.4166667   0.0625000), wk =   0.0052083
        k(   48) = (   0.0000000   0.4166667   0.1250000), wk =   0.0052083
        k(   49) = (   0.0000000   0.4166667   0.1875000), wk =   0.0052083
        k(   50) = (   0.0000000   0.4166667   0.2500000), wk =   0.0052083
        k(   51) = (   0.0000000   0.4166667   0.3125000), wk =   0.0052083
        k(   52) = (   0.0000000   0.4166667   0.3750000), wk =   0.0052083
        k(   53) = (   0.0000000   0.4166667   0.4375000), wk =   0.0052083
        k(   54) = (   0.0000000   0.4166667  -0.5000000), wk =   0.0026042
        k(   55) = (   0.0000000  -0.5000000   0.0000000), wk =   0.0013021
        k(   56) = (   0.0000000  -0.5000000   0.0625000), wk =   0.0026042
        k(   57) = (   0.0000000  -0.5000000   0.1250000), wk =   0.0026042
        k(   58) = (   0.0000000  -0.5000000   0.1875000), wk =   0.0026042
        k(   59) = (   0.0000000  -0.5000000   0.2500000), wk =   0.0026042
        k(   60) = (   0.0000000  -0.5000000   0.3125000), wk =   0.0026042
        k(   61) = (   0.0000000  -0.5000000   0.3750000), wk =   0.0026042
        k(   62) = (   0.0000000  -0.5000000   0.4375000), wk =   0.0026042
        k(   63) = (   0.0000000  -0.5000000  -0.5000000), wk =   0.0013021
        k(   64) = (   0.1250000  -0.0000000   0.0000000), wk =   0.0026042
        k(   65) = (   0.1250000  -0.0000000   0.0625000), wk =   0.0052083
        k(   66) = (   0.1250000  -0.0000000   0.1250000), wk =   0.0052083
        k(   67) = (   0.1250000  -0.0000000   0.1875000), wk =   0.0052083
        k(   68) = (   0.1250000  -0.0000000   0.2500000), wk =   0.0052083
        k(   69) = (   0.1250000  -0.0000000   0.3125000), wk =   0.0052083
        k(   70) = (   0.1250000  -0.0000000   0.3750000), wk =   0.0052083
        k(   71) = (   0.1250000  -0.0000000   0.4375000), wk =   0.0052083
        k(   72) = (   0.1250000  -0.0000000  -0.5000000), wk =   0.0026042
        k(   73) = (   0.1250000   0.0833333   0.0000000), wk =   0.0026042
        k(   74) = (   0.1250000   0.0833333   0.0625000), wk =   0.0052083
        k(   75) = (   0.1250000   0.0833333   0.1250000), wk =   0.0052083
        k(   76) = (   0.1250000   0.0833333   0.1875000), wk =   0.0052083
        k(   77) = (   0.1250000   0.0833333   0.2500000), wk =   0.0052083
        k(   78) = (   0.1250000   0.0833333   0.3125000), wk =   0.0052083
        k(   79) = (   0.1250000   0.0833333   0.3750000), wk =   0.0052083
        k(   80) = (   0.1250000   0.0833333   0.4375000), wk =   0.0052083
        k(   81) = (   0.1250000   0.0833333  -0.5000000), wk =   0.0026042
        k(   82) = (   0.1250000   0.1666667   0.0000000), wk =   0.0026042
        k(   83) = (   0.1250000   0.1666667   0.0625000), wk =   0.0052083
        k(   84) = (   0.1250000   0.1666667   0.1250000), wk =   0.0052083
        k(   85) = (   0.1250000   0.1666667   0.1875000), wk =   0.0052083
        k(   86) = (   0.1250000   0.1666667   0.2500000), wk =   0.0052083
        k(   87) = (   0.1250000   0.1666667   0.3125000), wk =   0.0052083
        k(   88) = (   0.1250000   0.1666667   0.3750000), wk =   0.0052083
        k(   89) = (   0.1250000   0.1666667   0.4375000), wk =   0.0052083
        k(   90) = (   0.1250000   0.1666667  -0.5000000), wk =   0.0026042
        k(   91) = (   0.1250000   0.2500000   0.0000000), wk =   0.0026042
        k(   92) = (   0.1250000   0.2500000   0.0625000), wk =   0.0052083
        k(   93) = (   0.1250000   0.2500000   0.1250000), wk =   0.0052083
        k(   94) = (   0.1250000   0.2500000   0.1875000), wk =   0.0052083
        k(   95) = (   0.1250000   0.2500000   0.2500000), wk =   0.0052083
        k(   96) = (   0.1250000   0.2500000   0.3125000), wk =   0.0052083
        k(   97) = (   0.1250000   0.2500000   0.3750000), wk =   0.0052083
        k(   98) = (   0.1250000   0.2500000   0.4375000), wk =   0.0052083
        k(   99) = (   0.1250000   0.2500000  -0.5000000), wk =   0.0026042
        k(  100) = (   0.1250000   0.3333333   0.0000000), wk =   0.0026042
        k(  101) = (   0.1250000   0.3333333   0.0625000), wk =   0.0052083
        k(  102) = (   0.1250000   0.3333333   0.1250000), wk =   0.0052083
        k(  103) = (   0.1250000   0.3333333   0.1875000), wk =   0.0052083
        k(  104) = (   0.1250000   0.3333333   0.2500000), wk =   0.0052083
        k(  105) = (   0.1250000   0.3333333   0.3125000), wk =   0.0052083
        k(  106) = (   0.1250000   0.3333333   0.3750000), wk =   0.0052083
        k(  107) = (   0.1250000   0.3333333   0.4375000), wk =   0.0052083
        k(  108) = (   0.1250000   0.3333333  -0.5000000), wk =   0.0026042
        k(  109) = (   0.1250000   0.4166667   0.0000000), wk =   0.0026042
        k(  110) = (   0.1250000   0.4166667   0.0625000), wk =   0.0052083
        k(  111) = (   0.1250000   0.4166667   0.1250000), wk =   0.0052083
        k(  112) = (   0.1250000   0.4166667   0.1875000), wk =   0.0052083
        k(  113) = (   0.1250000   0.4166667   0.2500000), wk =   0.0052083
        k(  114) = (   0.1250000   0.4166667   0.3125000), wk =   0.0052083
        k(  115) = (   0.1250000   0.4166667   0.3750000), wk =   0.0052083
        k(  116) = (   0.1250000   0.4166667   0.4375000), wk =   0.0052083
        k(  117) = (   0.1250000   0.4166667  -0.5000000), wk =   0.0026042
        k(  118) = (   0.1250000  -0.5000000   0.0000000), wk =   0.0026042
        k(  119) = (   0.1250000  -0.5000000   0.0625000), wk =   0.0052083
        k(  120) = (   0.1250000  -0.5000000   0.1250000), wk =   0.0052083
        k(  121) = (   0.1250000  -0.5000000   0.1875000), wk =   0.0052083
        k(  122) = (   0.1250000  -0.5000000   0.2500000), wk =   0.0052083
        k(  123) = (   0.1250000  -0.5000000   0.3125000), wk =   0.0052083
        k(  124) = (   0.1250000  -0.5000000   0.3750000), wk =   0.0052083
        k(  125) = (   0.1250000  -0.5000000   0.4375000), wk =   0.0052083
        k(  126) = (   0.1250000  -0.5000000  -0.5000000), wk =   0.0026042
        k(  127) = (   0.1250000  -0.4166667   0.0000000), wk =   0.0026042
        k(  128) = (   0.1250000  -0.4166667   0.0625000), wk =   0.0052083
        k(  129) = (   0.1250000  -0.4166667   0.1250000), wk =   0.0052083
        k(  130) = (   0.1250000  -0.4166667   0.1875000), wk =   0.0052083
        k(  131) = (   0.1250000  -0.4166667   0.2500000), wk =   0.0052083
        k(  132) = (   0.1250000  -0.4166667   0.3125000), wk =   0.0052083
        k(  133) = (   0.1250000  -0.4166667   0.3750000), wk =   0.0052083
        k(  134) = (   0.1250000  -0.4166667   0.4375000), wk =   0.0052083
        k(  135) = (   0.1250000  -0.4166667  -0.5000000), wk =   0.0026042
        k(  136) = (   0.1250000  -0.3333333   0.0000000), wk =   0.0026042
        k(  137) = (   0.1250000  -0.3333333   0.0625000), wk =   0.0052083
        k(  138) = (   0.1250000  -0.3333333   0.1250000), wk =   0.0052083
        k(  139) = (   0.1250000  -0.3333333   0.1875000), wk =   0.0052083
        k(  140) = (   0.1250000  -0.3333333   0.2500000), wk =   0.0052083
        k(  141) = (   0.1250000  -0.3333333   0.3125000), wk =   0.0052083
        k(  142) = (   0.1250000  -0.3333333   0.3750000), wk =   0.0052083
        k(  143) = (   0.1250000  -0.3333333   0.4375000), wk =   0.0052083
        k(  144) = (   0.1250000  -0.3333333  -0.5000000), wk =   0.0026042
        k(  145) = (   0.1250000  -0.2500000   0.0000000), wk =   0.0026042
        k(  146) = (   0.1250000  -0.2500000   0.0625000), wk =   0.0052083
        k(  147) = (   0.1250000  -0.2500000   0.1250000), wk =   0.0052083
        k(  148) = (   0.1250000  -0.2500000   0.1875000), wk =   0.0052083
        k(  149) = (   0.1250000  -0.2500000   0.2500000), wk =   0.0052083
        k(  150) = (   0.1250000  -0.2500000   0.3125000), wk =   0.0052083
        k(  151) = (   0.1250000  -0.2500000   0.3750000), wk =   0.0052083
        k(  152) = (   0.1250000  -0.2500000   0.4375000), wk =   0.0052083
        k(  153) = (   0.1250000  -0.2500000  -0.5000000), wk =   0.0026042
        k(  154) = (   0.1250000  -0.1666667   0.0000000), wk =   0.0026042
        k(  155) = (   0.1250000  -0.1666667   0.0625000), wk =   0.0052083
        k(  156) = (   0.1250000  -0.1666667   0.1250000), wk =   0.0052083
        k(  157) = (   0.1250000  -0.1666667   0.1875000), wk =   0.0052083
        k(  158) = (   0.1250000  -0.1666667   0.2500000), wk =   0.0052083
        k(  159) = (   0.1250000  -0.1666667   0.3125000), wk =   0.0052083
        k(  160) = (   0.1250000  -0.1666667   0.3750000), wk =   0.0052083
        k(  161) = (   0.1250000  -0.1666667   0.4375000), wk =   0.0052083
        k(  162) = (   0.1250000  -0.1666667  -0.5000000), wk =   0.0026042
        k(  163) = (   0.1250000  -0.0833333   0.0000000), wk =   0.0026042
        k(  164) = (   0.1250000  -0.0833333   0.0625000), wk =   0.0052083
        k(  165) = (   0.1250000  -0.0833333   0.1250000), wk =   0.0052083
        k(  166) = (   0.1250000  -0.0833333   0.1875000), wk =   0.0052083
        k(  167) = (   0.1250000  -0.0833333   0.2500000), wk =   0.0052083
        k(  168) = (   0.1250000  -0.0833333   0.3125000), wk =   0.0052083
        k(  169) = (   0.1250000  -0.0833333   0.3750000), wk =   0.0052083
        k(  170) = (   0.1250000  -0.0833333   0.4375000), wk =   0.0052083
        k(  171) = (   0.1250000  -0.0833333  -0.5000000), wk =   0.0026042
        k(  172) = (   0.2500000  -0.0000000   0.0000000), wk =   0.0026042
        k(  173) = (   0.2500000  -0.0000000   0.0625000), wk =   0.0052083
        k(  174) = (   0.2500000  -0.0000000   0.1250000), wk =   0.0052083
        k(  175) = (   0.2500000  -0.0000000   0.1875000), wk =   0.0052083
        k(  176) = (   0.2500000  -0.0000000   0.2500000), wk =   0.0052083
        k(  177) = (   0.2500000  -0.0000000   0.3125000), wk =   0.0052083
        k(  178) = (   0.2500000  -0.0000000   0.3750000), wk =   0.0052083
        k(  179) = (   0.2500000  -0.0000000   0.4375000), wk =   0.0052083
        k(  180) = (   0.2500000  -0.0000000  -0.5000000), wk =   0.0026042
        k(  181) = (   0.2500000   0.0833333   0.0000000), wk =   0.0026042
        k(  182) = (   0.2500000   0.0833333   0.0625000), wk =   0.0052083
        k(  183) = (   0.2500000   0.0833333   0.1250000), wk =   0.0052083
        k(  184) = (   0.2500000   0.0833333   0.1875000), wk =   0.0052083
        k(  185) = (   0.2500000   0.0833333   0.2500000), wk =   0.0052083
        k(  186) = (   0.2500000   0.0833333   0.3125000), wk =   0.0052083
        k(  187) = (   0.2500000   0.0833333   0.3750000), wk =   0.0052083
        k(  188) = (   0.2500000   0.0833333   0.4375000), wk =   0.0052083
        k(  189) = (   0.2500000   0.0833333  -0.5000000), wk =   0.0026042
        k(  190) = (   0.2500000   0.1666667   0.0000000), wk =   0.0026042
        k(  191) = (   0.2500000   0.1666667   0.0625000), wk =   0.0052083
        k(  192) = (   0.2500000   0.1666667   0.1250000), wk =   0.0052083
        k(  193) = (   0.2500000   0.1666667   0.1875000), wk =   0.0052083
        k(  194) = (   0.2500000   0.1666667   0.2500000), wk =   0.0052083
        k(  195) = (   0.2500000   0.1666667   0.3125000), wk =   0.0052083
        k(  196) = (   0.2500000   0.1666667   0.3750000), wk =   0.0052083
        k(  197) = (   0.2500000   0.1666667   0.4375000), wk =   0.0052083
        k(  198) = (   0.2500000   0.1666667  -0.5000000), wk =   0.0026042
        k(  199) = (   0.2500000   0.2500000   0.0000000), wk =   0.0026042
        k(  200) = (   0.2500000   0.2500000   0.0625000), wk =   0.0052083
        k(  201) = (   0.2500000   0.2500000   0.1250000), wk =   0.0052083
        k(  202) = (   0.2500000   0.2500000   0.1875000), wk =   0.0052083
        k(  203) = (   0.2500000   0.2500000   0.2500000), wk =   0.0052083
        k(  204) = (   0.2500000   0.2500000   0.3125000), wk =   0.0052083
        k(  205) = (   0.2500000   0.2500000   0.3750000), wk =   0.0052083
        k(  206) = (   0.2500000   0.2500000   0.4375000), wk =   0.0052083
        k(  207) = (   0.2500000   0.2500000  -0.5000000), wk =   0.0026042
        k(  208) = (   0.2500000   0.3333333   0.0000000), wk =   0.0026042
        k(  209) = (   0.2500000   0.3333333   0.0625000), wk =   0.0052083
        k(  210) = (   0.2500000   0.3333333   0.1250000), wk =   0.0052083
        k(  211) = (   0.2500000   0.3333333   0.1875000), wk =   0.0052083
        k(  212) = (   0.2500000   0.3333333   0.2500000), wk =   0.0052083
        k(  213) = (   0.2500000   0.3333333   0.3125000), wk =   0.0052083
        k(  214) = (   0.2500000   0.3333333   0.3750000), wk =   0.0052083
        k(  215) = (   0.2500000   0.3333333   0.4375000), wk =   0.0052083
        k(  216) = (   0.2500000   0.3333333  -0.5000000), wk =   0.0026042
        k(  217) = (   0.2500000   0.4166667   0.0000000), wk =   0.0026042
        k(  218) = (   0.2500000   0.4166667   0.0625000), wk =   0.0052083
        k(  219) = (   0.2500000   0.4166667   0.1250000), wk =   0.0052083
        k(  220) = (   0.2500000   0.4166667   0.1875000), wk =   0.0052083
        k(  221) = (   0.2500000   0.4166667   0.2500000), wk =   0.0052083
        k(  222) = (   0.2500000   0.4166667   0.3125000), wk =   0.0052083
        k(  223) = (   0.2500000   0.4166667   0.3750000), wk =   0.0052083
        k(  224) = (   0.2500000   0.4166667   0.4375000), wk =   0.0052083
        k(  225) = (   0.2500000   0.4166667  -0.5000000), wk =   0.0026042
        k(  226) = (   0.2500000  -0.5000000   0.0000000), wk =   0.0026042
        k(  227) = (   0.2500000  -0.5000000   0.0625000), wk =   0.0052083
        k(  228) = (   0.2500000  -0.5000000   0.1250000), wk =   0.0052083
        k(  229) = (   0.2500000  -0.5000000   0.1875000), wk =   0.0052083
        k(  230) = (   0.2500000  -0.5000000   0.2500000), wk =   0.0052083
        k(  231) = (   0.2500000  -0.5000000   0.3125000), wk =   0.0052083
        k(  232) = (   0.2500000  -0.5000000   0.3750000), wk =   0.0052083
        k(  233) = (   0.2500000  -0.5000000   0.4375000), wk =   0.0052083
        k(  234) = (   0.2500000  -0.5000000  -0.5000000), wk =   0.0026042
        k(  235) = (   0.2500000  -0.4166667   0.0000000), wk =   0.0026042
        k(  236) = (   0.2500000  -0.4166667   0.0625000), wk =   0.0052083
        k(  237) = (   0.2500000  -0.4166667   0.1250000), wk =   0.0052083
        k(  238) = (   0.2500000  -0.4166667   0.1875000), wk =   0.0052083
        k(  239) = (   0.2500000  -0.4166667   0.2500000), wk =   0.0052083
        k(  240) = (   0.2500000  -0.4166667   0.3125000), wk =   0.0052083
        k(  241) = (   0.2500000  -0.4166667   0.3750000), wk =   0.0052083
        k(  242) = (   0.2500000  -0.4166667   0.4375000), wk =   0.0052083
        k(  243) = (   0.2500000  -0.4166667  -0.5000000), wk =   0.0026042
        k(  244) = (   0.2500000  -0.3333333   0.0000000), wk =   0.0026042
        k(  245) = (   0.2500000  -0.3333333   0.0625000), wk =   0.0052083
        k(  246) = (   0.2500000  -0.3333333   0.1250000), wk =   0.0052083
        k(  247) = (   0.2500000  -0.3333333   0.1875000), wk =   0.0052083
        k(  248) = (   0.2500000  -0.3333333   0.2500000), wk =   0.0052083
        k(  249) = (   0.2500000  -0.3333333   0.3125000), wk =   0.0052083
        k(  250) = (   0.2500000  -0.3333333   0.3750000), wk =   0.0052083
        k(  251) = (   0.2500000  -0.3333333   0.4375000), wk =   0.0052083
        k(  252) = (   0.2500000  -0.3333333  -0.5000000), wk =   0.0026042
        k(  253) = (   0.2500000  -0.2500000   0.0000000), wk =   0.0026042
        k(  254) = (   0.2500000  -0.2500000   0.0625000), wk =   0.0052083
        k(  255) = (   0.2500000  -0.2500000   0.1250000), wk =   0.0052083
        k(  256) = (   0.2500000  -0.2500000   0.1875000), wk =   0.0052083
        k(  257) = (   0.2500000  -0.2500000   0.2500000), wk =   0.0052083
        k(  258) = (   0.2500000  -0.2500000   0.3125000), wk =   0.0052083
        k(  259) = (   0.2500000  -0.2500000   0.3750000), wk =   0.0052083
        k(  260) = (   0.2500000  -0.2500000   0.4375000), wk =   0.0052083
        k(  261) = (   0.2500000  -0.2500000  -0.5000000), wk =   0.0026042
        k(  262) = (   0.2500000  -0.1666667   0.0000000), wk =   0.0026042
        k(  263) = (   0.2500000  -0.1666667   0.0625000), wk =   0.0052083
        k(  264) = (   0.2500000  -0.1666667   0.1250000), wk =   0.0052083
        k(  265) = (   0.2500000  -0.1666667   0.1875000), wk =   0.0052083
        k(  266) = (   0.2500000  -0.1666667   0.2500000), wk =   0.0052083
        k(  267) = (   0.2500000  -0.1666667   0.3125000), wk =   0.0052083
        k(  268) = (   0.2500000  -0.1666667   0.3750000), wk =   0.0052083
        k(  269) = (   0.2500000  -0.1666667   0.4375000), wk =   0.0052083
        k(  270) = (   0.2500000  -0.1666667  -0.5000000), wk =   0.0026042
        k(  271) = (   0.2500000  -0.0833333   0.0000000), wk =   0.0026042
        k(  272) = (   0.2500000  -0.0833333   0.0625000), wk =   0.0052083
        k(  273) = (   0.2500000  -0.0833333   0.1250000), wk =   0.0052083
        k(  274) = (   0.2500000  -0.0833333   0.1875000), wk =   0.0052083
        k(  275) = (   0.2500000  -0.0833333   0.2500000), wk =   0.0052083
        k(  276) = (   0.2500000  -0.0833333   0.3125000), wk =   0.0052083
        k(  277) = (   0.2500000  -0.0833333   0.3750000), wk =   0.0052083
        k(  278) = (   0.2500000  -0.0833333   0.4375000), wk =   0.0052083
        k(  279) = (   0.2500000  -0.0833333  -0.5000000), wk =   0.0026042
        k(  280) = (   0.3750000  -0.0000000   0.0000000), wk =   0.0026042
        k(  281) = (   0.3750000  -0.0000000   0.0625000), wk =   0.0052083
        k(  282) = (   0.3750000  -0.0000000   0.1250000), wk =   0.0052083
        k(  283) = (   0.3750000  -0.0000000   0.1875000), wk =   0.0052083
        k(  284) = (   0.3750000  -0.0000000   0.2500000), wk =   0.0052083
        k(  285) = (   0.3750000  -0.0000000   0.3125000), wk =   0.0052083
        k(  286) = (   0.3750000  -0.0000000   0.3750000), wk =   0.0052083
        k(  287) = (   0.3750000  -0.0000000   0.4375000), wk =   0.0052083
        k(  288) = (   0.3750000  -0.0000000  -0.5000000), wk =   0.0026042
        k(  289) = (   0.3750000   0.0833333   0.0000000), wk =   0.0026042
        k(  290) = (   0.3750000   0.0833333   0.0625000), wk =   0.0052083
        k(  291) = (   0.3750000   0.0833333   0.1250000), wk =   0.0052083
        k(  292) = (   0.3750000   0.0833333   0.1875000), wk =   0.0052083
        k(  293) = (   0.3750000   0.0833333   0.2500000), wk =   0.0052083
        k(  294) = (   0.3750000   0.0833333   0.3125000), wk =   0.0052083
        k(  295) = (   0.3750000   0.0833333   0.3750000), wk =   0.0052083
        k(  296) = (   0.3750000   0.0833333   0.4375000), wk =   0.0052083
        k(  297) = (   0.3750000   0.0833333  -0.5000000), wk =   0.0026042
        k(  298) = (   0.3750000   0.1666667   0.0000000), wk =   0.0026042
        k(  299) = (   0.3750000   0.1666667   0.0625000), wk =   0.0052083
        k(  300) = (   0.3750000   0.1666667   0.1250000), wk =   0.0052083
        k(  301) = (   0.3750000   0.1666667   0.1875000), wk =   0.0052083
        k(  302) = (   0.3750000   0.1666667   0.2500000), wk =   0.0052083
        k(  303) = (   0.3750000   0.1666667   0.3125000), wk =   0.0052083
        k(  304) = (   0.3750000   0.1666667   0.3750000), wk =   0.0052083
        k(  305) = (   0.3750000   0.1666667   0.4375000), wk =   0.0052083
        k(  306) = (   0.3750000   0.1666667  -0.5000000), wk =   0.0026042
        k(  307) = (   0.3750000   0.2500000   0.0000000), wk =   0.0026042
        k(  308) = (   0.3750000   0.2500000   0.0625000), wk =   0.0052083
        k(  309) = (   0.3750000   0.2500000   0.1250000), wk =   0.0052083
        k(  310) = (   0.3750000   0.2500000   0.1875000), wk =   0.0052083
        k(  311) = (   0.3750000   0.2500000   0.2500000), wk =   0.0052083
        k(  312) = (   0.3750000   0.2500000   0.3125000), wk =   0.0052083
        k(  313) = (   0.3750000   0.2500000   0.3750000), wk =   0.0052083
        k(  314) = (   0.3750000   0.2500000   0.4375000), wk =   0.0052083
        k(  315) = (   0.3750000   0.2500000  -0.5000000), wk =   0.0026042
        k(  316) = (   0.3750000   0.3333333   0.0000000), wk =   0.0026042
        k(  317) = (   0.3750000   0.3333333   0.0625000), wk =   0.0052083
        k(  318) = (   0.3750000   0.3333333   0.1250000), wk =   0.0052083
        k(  319) = (   0.3750000   0.3333333   0.1875000), wk =   0.0052083
        k(  320) = (   0.3750000   0.3333333   0.2500000), wk =   0.0052083
        k(  321) = (   0.3750000   0.3333333   0.3125000), wk =   0.0052083
        k(  322) = (   0.3750000   0.3333333   0.3750000), wk =   0.0052083
        k(  323) = (   0.3750000   0.3333333   0.4375000), wk =   0.0052083
        k(  324) = (   0.3750000   0.3333333  -0.5000000), wk =   0.0026042
        k(  325) = (   0.3750000   0.4166667   0.0000000), wk =   0.0026042
        k(  326) = (   0.3750000   0.4166667   0.0625000), wk =   0.0052083
        k(  327) = (   0.3750000   0.4166667   0.1250000), wk =   0.0052083
        k(  328) = (   0.3750000   0.4166667   0.1875000), wk =   0.0052083
        k(  329) = (   0.3750000   0.4166667   0.2500000), wk =   0.0052083
        k(  330) = (   0.3750000   0.4166667   0.3125000), wk =   0.0052083
        k(  331) = (   0.3750000   0.4166667   0.3750000), wk =   0.0052083
        k(  332) = (   0.3750000   0.4166667   0.4375000), wk =   0.0052083
        k(  333) = (   0.3750000   0.4166667  -0.5000000), wk =   0.0026042
        k(  334) = (   0.3750000  -0.5000000   0.0000000), wk =   0.0026042
        k(  335) = (   0.3750000  -0.5000000   0.0625000), wk =   0.0052083
        k(  336) = (   0.3750000  -0.5000000   0.1250000), wk =   0.0052083
        k(  337) = (   0.3750000  -0.5000000   0.1875000), wk =   0.0052083
        k(  338) = (   0.3750000  -0.5000000   0.2500000), wk =   0.0052083
        k(  339) = (   0.3750000  -0.5000000   0.3125000), wk =   0.0052083
        k(  340) = (   0.3750000  -0.5000000   0.3750000), wk =   0.0052083
        k(  341) = (   0.3750000  -0.5000000   0.4375000), wk =   0.0052083
        k(  342) = (   0.3750000  -0.5000000  -0.5000000), wk =   0.0026042
        k(  343) = (   0.3750000  -0.4166667   0.0000000), wk =   0.0026042
        k(  344) = (   0.3750000  -0.4166667   0.0625000), wk =   0.0052083
        k(  345) = (   0.3750000  -0.4166667   0.1250000), wk =   0.0052083
        k(  346) = (   0.3750000  -0.4166667   0.1875000), wk =   0.0052083
        k(  347) = (   0.3750000  -0.4166667   0.2500000), wk =   0.0052083
        k(  348) = (   0.3750000  -0.4166667   0.3125000), wk =   0.0052083
        k(  349) = (   0.3750000  -0.4166667   0.3750000), wk =   0.0052083
        k(  350) = (   0.3750000  -0.4166667   0.4375000), wk =   0.0052083
        k(  351) = (   0.3750000  -0.4166667  -0.5000000), wk =   0.0026042
        k(  352) = (   0.3750000  -0.3333333   0.0000000), wk =   0.0026042
        k(  353) = (   0.3750000  -0.3333333   0.0625000), wk =   0.0052083
        k(  354) = (   0.3750000  -0.3333333   0.1250000), wk =   0.0052083
        k(  355) = (   0.3750000  -0.3333333   0.1875000), wk =   0.0052083
        k(  356) = (   0.3750000  -0.3333333   0.2500000), wk =   0.0052083
        k(  357) = (   0.3750000  -0.3333333   0.3125000), wk =   0.0052083
        k(  358) = (   0.3750000  -0.3333333   0.3750000), wk =   0.0052083
        k(  359) = (   0.3750000  -0.3333333   0.4375000), wk =   0.0052083
        k(  360) = (   0.3750000  -0.3333333  -0.5000000), wk =   0.0026042
        k(  361) = (   0.3750000  -0.2500000   0.0000000), wk =   0.0026042
        k(  362) = (   0.3750000  -0.2500000   0.0625000), wk =   0.0052083
        k(  363) = (   0.3750000  -0.2500000   0.1250000), wk =   0.0052083
        k(  364) = (   0.3750000  -0.2500000   0.1875000), wk =   0.0052083
        k(  365) = (   0.3750000  -0.2500000   0.2500000), wk =   0.0052083
        k(  366) = (   0.3750000  -0.2500000   0.3125000), wk =   0.0052083
        k(  367) = (   0.3750000  -0.2500000   0.3750000), wk =   0.0052083
        k(  368) = (   0.3750000  -0.2500000   0.4375000), wk =   0.0052083
        k(  369) = (   0.3750000  -0.2500000  -0.5000000), wk =   0.0026042
        k(  370) = (   0.3750000  -0.1666667   0.0000000), wk =   0.0026042
        k(  371) = (   0.3750000  -0.1666667   0.0625000), wk =   0.0052083
        k(  372) = (   0.3750000  -0.1666667   0.1250000), wk =   0.0052083
        k(  373) = (   0.3750000  -0.1666667   0.1875000), wk =   0.0052083
        k(  374) = (   0.3750000  -0.1666667   0.2500000), wk =   0.0052083
        k(  375) = (   0.3750000  -0.1666667   0.3125000), wk =   0.0052083
        k(  376) = (   0.3750000  -0.1666667   0.3750000), wk =   0.0052083
        k(  377) = (   0.3750000  -0.1666667   0.4375000), wk =   0.0052083
        k(  378) = (   0.3750000  -0.1666667  -0.5000000), wk =   0.0026042
        k(  379) = (   0.3750000  -0.0833333   0.0000000), wk =   0.0026042
        k(  380) = (   0.3750000  -0.0833333   0.0625000), wk =   0.0052083
        k(  381) = (   0.3750000  -0.0833333   0.1250000), wk =   0.0052083
        k(  382) = (   0.3750000  -0.0833333   0.1875000), wk =   0.0052083
        k(  383) = (   0.3750000  -0.0833333   0.2500000), wk =   0.0052083
        k(  384) = (   0.3750000  -0.0833333   0.3125000), wk =   0.0052083
        k(  385) = (   0.3750000  -0.0833333   0.3750000), wk =   0.0052083
        k(  386) = (   0.3750000  -0.0833333   0.4375000), wk =   0.0052083
        k(  387) = (   0.3750000  -0.0833333  -0.5000000), wk =   0.0026042
        k(  388) = (  -0.5000000   0.0000000   0.0000000), wk =   0.0013021
        k(  389) = (  -0.5000000   0.0000000   0.0625000), wk =   0.0026042
        k(  390) = (  -0.5000000   0.0000000   0.1250000), wk =   0.0026042
        k(  391) = (  -0.5000000   0.0000000   0.1875000), wk =   0.0026042
        k(  392) = (  -0.5000000   0.0000000   0.2500000), wk =   0.0026042
        k(  393) = (  -0.5000000   0.0000000   0.3125000), wk =   0.0026042
        k(  394) = (  -0.5000000   0.0000000   0.3750000), wk =   0.0026042
        k(  395) = (  -0.5000000   0.0000000   0.4375000), wk =   0.0026042
        k(  396) = (  -0.5000000   0.0000000  -0.5000000), wk =   0.0013021
        k(  397) = (  -0.5000000   0.0833333   0.0000000), wk =   0.0026042
        k(  398) = (  -0.5000000   0.0833333   0.0625000), wk =   0.0052083
        k(  399) = (  -0.5000000   0.0833333   0.1250000), wk =   0.0052083
        k(  400) = (  -0.5000000   0.0833333   0.1875000), wk =   0.0052083
        k(  401) = (  -0.5000000   0.0833333   0.2500000), wk =   0.0052083
        k(  402) = (  -0.5000000   0.0833333   0.3125000), wk =   0.0052083
        k(  403) = (  -0.5000000   0.0833333   0.3750000), wk =   0.0052083
        k(  404) = (  -0.5000000   0.0833333   0.4375000), wk =   0.0052083
        k(  405) = (  -0.5000000   0.0833333  -0.5000000), wk =   0.0026042
        k(  406) = (  -0.5000000   0.1666667   0.0000000), wk =   0.0026042
        k(  407) = (  -0.5000000   0.1666667   0.0625000), wk =   0.0052083
        k(  408) = (  -0.5000000   0.1666667   0.1250000), wk =   0.0052083
        k(  409) = (  -0.5000000   0.1666667   0.1875000), wk =   0.0052083
        k(  410) = (  -0.5000000   0.1666667   0.2500000), wk =   0.0052083
        k(  411) = (  -0.5000000   0.1666667   0.3125000), wk =   0.0052083
        k(  412) = (  -0.5000000   0.1666667   0.3750000), wk =   0.0052083
        k(  413) = (  -0.5000000   0.1666667   0.4375000), wk =   0.0052083
        k(  414) = (  -0.5000000   0.1666667  -0.5000000), wk =   0.0026042
        k(  415) = (  -0.5000000   0.2500000   0.0000000), wk =   0.0026042
        k(  416) = (  -0.5000000   0.2500000   0.0625000), wk =   0.0052083
        k(  417) = (  -0.5000000   0.2500000   0.1250000), wk =   0.0052083
        k(  418) = (  -0.5000000   0.2500000   0.1875000), wk =   0.0052083
        k(  419) = (  -0.5000000   0.2500000   0.2500000), wk =   0.0052083
        k(  420) = (  -0.5000000   0.2500000   0.3125000), wk =   0.0052083
        k(  421) = (  -0.5000000   0.2500000   0.3750000), wk =   0.0052083
        k(  422) = (  -0.5000000   0.2500000   0.4375000), wk =   0.0052083
        k(  423) = (  -0.5000000   0.2500000  -0.5000000), wk =   0.0026042
        k(  424) = (  -0.5000000   0.3333333   0.0000000), wk =   0.0026042
        k(  425) = (  -0.5000000   0.3333333   0.0625000), wk =   0.0052083
        k(  426) = (  -0.5000000   0.3333333   0.1250000), wk =   0.0052083
        k(  427) = (  -0.5000000   0.3333333   0.1875000), wk =   0.0052083
        k(  428) = (  -0.5000000   0.3333333   0.2500000), wk =   0.0052083
        k(  429) = (  -0.5000000   0.3333333   0.3125000), wk =   0.0052083
        k(  430) = (  -0.5000000   0.3333333   0.3750000), wk =   0.0052083
        k(  431) = (  -0.5000000   0.3333333   0.4375000), wk =   0.0052083
        k(  432) = (  -0.5000000   0.3333333  -0.5000000), wk =   0.0026042
        k(  433) = (  -0.5000000   0.4166667   0.0000000), wk =   0.0026042
        k(  434) = (  -0.5000000   0.4166667   0.0625000), wk =   0.0052083
        k(  435) = (  -0.5000000   0.4166667   0.1250000), wk =   0.0052083
        k(  436) = (  -0.5000000   0.4166667   0.1875000), wk =   0.0052083
        k(  437) = (  -0.5000000   0.4166667   0.2500000), wk =   0.0052083
        k(  438) = (  -0.5000000   0.4166667   0.3125000), wk =   0.0052083
        k(  439) = (  -0.5000000   0.4166667   0.3750000), wk =   0.0052083
        k(  440) = (  -0.5000000   0.4166667   0.4375000), wk =   0.0052083
        k(  441) = (  -0.5000000   0.4166667  -0.5000000), wk =   0.0026042
        k(  442) = (  -0.5000000  -0.5000000   0.0000000), wk =   0.0013021
        k(  443) = (  -0.5000000  -0.5000000   0.0625000), wk =   0.0026042
        k(  444) = (  -0.5000000  -0.5000000   0.1250000), wk =   0.0026042
        k(  445) = (  -0.5000000  -0.5000000   0.1875000), wk =   0.0026042
        k(  446) = (  -0.5000000  -0.5000000   0.2500000), wk =   0.0026042
        k(  447) = (  -0.5000000  -0.5000000   0.3125000), wk =   0.0026042
        k(  448) = (  -0.5000000  -0.5000000   0.3750000), wk =   0.0026042
        k(  449) = (  -0.5000000  -0.5000000   0.4375000), wk =   0.0026042
        k(  450) = (  -0.5000000  -0.5000000  -0.5000000), wk =   0.0013021

     Dense  grid:    44615 G-vectors     FFT dimensions: (  75,  45,  27)

     Dynamical RAM for                 wfc:       0.62 MB

     Dynamical RAM for     wfc (w. buffer):      35.80 MB

     Dynamical RAM for           str. fact:       0.17 MB

     Dynamical RAM for           local pot:       0.00 MB

     Dynamical RAM for          nlocal pot:       2.04 MB

     Dynamical RAM for                qrad:       0.86 MB

     Dynamical RAM for          rho,v,vnew:       1.05 MB

     Dynamical RAM for               rhoin:       0.35 MB

     Dynamical RAM for            rho*nmix:       2.72 MB

     Dynamical RAM for           G-vectors:       0.72 MB

     Dynamical RAM for          h,s,v(r/c):       0.62 MB

     Dynamical RAM for          <psi|beta>:       0.04 MB

     Dynamical RAM for                 psi:       2.47 MB

     Dynamical RAM for                hpsi:       2.47 MB

     Dynamical RAM for                spsi:       2.47 MB

     Dynamical RAM for      wfcinit/wfcrot:       2.10 MB

     Dynamical RAM for           addusdens:       9.36 MB

     Dynamical RAM for          addusforce:      13.20 MB

     Estimated static dynamical RAM per process >      44.97 MB

     Estimated max dynamical RAM per process >      58.17 MB

     Estimated total dynamical RAM >       1.82 GB

     Check: negative/imaginary core charge=   -0.000010    0.000000

     Initial potential from superposition of free atoms

     starting charge   47.99950, renormalised to   48.00000
     Starting wfc are   48 randomized atomic wfcs
     Checking if some PAW data can be deallocated... 

     total cpu time spent up to now is       11.8 secs

     Self-consistent Calculation

     iteration #  1     ecut=    75.00 Ry     beta= 0.70
     Davidson diagonalization with overlap
     ethr =  1.00E-02,  avg # of iterations =  2.3

     total cpu time spent up to now is       35.5 secs

     total energy              =    -220.90491714 Ry
     Harris-Foulkes estimate   =    -221.32176243 Ry
     estimated scf accuracy    <       0.81035124 Ry

     iteration #  2     ecut=    75.00 Ry     beta= 0.70
     Davidson diagonalization with overlap
     ethr =  1.69E-03,  avg # of iterations =  2.0

     total cpu time spent up to now is       55.1 secs

     total energy              =    -220.98169077 Ry
     Harris-Foulkes estimate   =    -221.01202002 Ry
     estimated scf accuracy    <       0.04644887 Ry

     iteration #  3     ecut=    75.00 Ry     beta= 0.70
     Davidson diagonalization with overlap
     ethr =  9.68E-05,  avg # of iterations =  5.7

     total cpu time spent up to now is       84.6 secs

     total energy              =    -220.98434370 Ry
     Harris-Foulkes estimate   =    -221.01804521 Ry
     estimated scf accuracy    <       0.07047555 Ry

     iteration #  4     ecut=    75.00 Ry     beta= 0.70
     Davidson diagonalization with overlap
     ethr =  9.68E-05,  avg # of iterations =  3.9

     total cpu time spent up to now is      109.2 secs

     total energy              =    -221.00057023 Ry
     Harris-Foulkes estimate   =    -221.00268322 Ry
     estimated scf accuracy    <       0.00502179 Ry

     iteration #  5     ecut=    75.00 Ry     beta= 0.70
     Davidson diagonalization with overlap
     ethr =  1.05E-05,  avg # of iterations =  3.5

     total cpu time spent up to now is      132.2 secs

     total energy              =    -221.00161038 Ry
     Harris-Foulkes estimate   =    -221.00174675 Ry
     estimated scf accuracy    <       0.00031604 Ry

     iteration #  6     ecut=    75.00 Ry     beta= 0.70
     Davidson diagonalization with overlap
     ethr =  6.58E-07,  avg # of iterations =  3.1

[...]
     1.0000   1.0000   1.0000   1.0000   1.0000   1.0000   1.0000   1.0000
    -0.0020  -0.0000  -0.0000  -0.0000  -0.0000

          k =-0.5000 0.5850-1.4028 (  5570 PWs)   bands (ev):

    -4.9316  -4.8760  -4.0560  -3.3824  -2.3397  -1.6040  -0.9638  -0.8064
    -0.0111   0.4997   2.4866   2.7977   3.8636   4.8820   5.0721   5.8427
     5.9252   6.3146   6.4441   6.7485   6.8138   7.2045   7.5083   8.5573
    13.1206  14.1002  17.1554  17.4222  18.9426

     occupation numbers 
     1.0000   1.0000   1.0000   1.0000   1.0000   1.0000   1.0000   1.0000
     1.0000   1.0000   1.0000   1.0000   1.0000   1.0000   1.0000   1.0000
     1.0000   1.0000   1.0000   1.0000   1.0000   1.0000   1.0000   1.0000
    -0.0062  -0.0000  -0.0000  -0.0000  -0.0000

          k =-0.5000-1.0415 0.0000 (  5588 PWs)   bands (ev):

    -8.0709  -7.0323  -6.2728  -6.1045  -4.3895  -3.3145  -0.3969   0.2209
     3.1693   3.5404   4.9631   5.0614   5.2935   5.5126   5.7897   6.7918
     7.3417   7.9504   8.0900   8.2537   8.3618   9.1588  11.4502  11.8286
    16.7449  17.0012  17.1108  17.7019  17.7535

     occupation numbers 
     1.0000   1.0000   1.0000   1.0000   1.0000   1.0000   1.0000   1.0000
     1.0000   1.0000   1.0000   1.0000   1.0000   1.0000   1.0000   1.0000
     1.0000   1.0000   1.0000   1.0000   1.0000   1.0000   1.0076   1.0320
    -0.0000  -0.0000  -0.0000  -0.0000  -0.0000

          k =-0.5000-1.0415 0.1754 (  5586 PWs)   bands (ev):

    -8.0071  -6.9705  -6.2087  -6.0474  -4.3389  -3.2624  -0.3629   0.2607
     3.1868   3.5515   4.9789   5.0867   5.3160   5.5034   5.7739   6.5047
     7.0050   7.8456   7.8874   8.0300   8.2449   9.1053  11.1711  11.5428
    16.8305  17.3351  17.3710  17.6190  17.9462

     occupation numbers 
     1.0000   1.0000   1.0000   1.0000   1.0000   1.0000   1.0000   1.0000
     1.0000   1.0000   1.0000   1.0000   1.0000   1.0000   1.0000   1.0000
     1.0000   1.0000   1.0000   1.0000   1.0000   1.0000   1.0005   1.0149
    -0.0000  -0.0000  -0.0000  -0.0000  -0.0000

          k =-0.5000-1.0415 0.3507 (  5590 PWs)   bands (ev):

    -7.8165  -6.7865  -6.0172  -5.8785  -4.1901  -3.1084  -0.2702   0.3713
     3.2225   3.5591   5.0033   5.1238   5.2990   5.3429   5.5963   6.0920
     6.2143   7.1239   7.2290   7.8534   8.2408   8.9256  10.4582  10.8067
    16.8380  16.9555  17.1611  18.3572  18.4030

     occupation numbers 
     1.0000   1.0000   1.0000   1.0000   1.0000   1.0000   1.0000   1.0000
     1.0000   1.0000   1.0000   1.0000   1.0000   1.0000   1.0000   1.0000
     1.0000   1.0000   1.0000   1.0000   1.0000   1.0000   1.0000   1.0000
    -0.0000  -0.0000  -0.0000  -0.0000  -0.0000

          k =-0.5000-1.0415 0.5261 (  5600 PWs)   bands (ev):

    -7.5027  -6.4862  -5.7012  -5.6063  -3.9530  -2.8599  -0.1525   0.5191
     3.1933   3.4352   4.4806   4.8313   4.8717   5.0489   5.5477   5.7498
     6.0463   6.3013   6.6876   7.6411   8.2596   8.5874   9.5658   9.8785
    16.0945  16.2852  17.0848  18.7053  18.9181

     occupation numbers 
     1.0000   1.0000   1.0000   1.0000   1.0000   1.0000   1.0000   1.0000
     1.0000   1.0000   1.0000   1.0000   1.0000   1.0000   1.0000   1.0000
     1.0000   1.0000   1.0000   1.0000   1.0000   1.0000   1.0000   1.0000
    -0.0000  -0.0000  -0.0000  -0.0000  -0.0000

          k =-0.5000-1.0415 0.7014 (  5592 PWs)   bands (ev):

    -7.0720  -6.0821  -5.2660  -5.2496  -3.6482  -2.5313  -0.0890   0.6125
     2.8311   2.8727   3.8099   4.0838   4.1311   4.8133   5.6839   5.7884
     5.9959   6.0495   6.5945   7.3392   8.0471   8.1755   8.7274   9.0809
    15.3560  15.3967  17.1989  18.4022  18.6731

     occupation numbers 
     1.0000   1.0000   1.0000   1.0000   1.0000   1.0000   1.0000   1.0000
     1.0000   1.0000   1.0000   1.0000   1.0000   1.0000   1.0000   1.0000
     1.0000   1.0000   1.0000   1.0000   1.0000   1.0000   1.0000   1.0000
    -0.0000  -0.0000  -0.0000  -0.0000  -0.0000

          k =-0.5000-1.0415 0.8768 (  5582 PWs)   bands (ev):

    -6.5372  -5.6001  -4.8492  -4.7209  -3.3146  -2.1459  -0.2140   0.4378
     1.9656   2.1772   3.0502   3.4340   3.7858   4.7939   5.8118   5.8285
     6.0625   6.1066   6.6892   7.0358   7.3662   7.7572   8.0849   8.7603
    14.6047  14.7093  17.2600  17.9031  18.6588

     occupation numbers 
     1.0000   1.0000   1.0000   1.0000   1.0000   1.0000   1.0000   1.0000
     1.0000   1.0000   1.0000   1.0000   1.0000   1.0000   1.0000   1.0000
     1.0000   1.0000   1.0000   1.0000   1.0000   1.0000   1.0000   1.0000
    -0.0000  -0.0000  -0.0000  -0.0000  -0.0000

          k =-0.5000-1.0415 1.0521 (  5574 PWs)   bands (ev):

    -5.9227  -5.0944  -4.4970  -4.0838  -3.0225  -1.7446  -0.5332  -0.1695
     1.0575   1.4180   2.6255   3.2001   3.5488   4.9061   5.7695   5.7845
     6.1822   6.2554   6.7296   6.8584   6.8962   7.1670   7.6772   8.7077
    13.9779  14.2029  17.2593  17.5119  18.7162

     occupation numbers 
     1.0000   1.0000   1.0000   1.0000   1.0000   1.0000   1.0000   1.0000
     1.0000   1.0000   1.0000   1.0000   1.0000   1.0000   1.0000   1.0000
     1.0000   1.0000   1.0000   1.0000   1.0000   1.0000   1.0000   1.0000
    -0.0000  -0.0000  -0.0000  -0.0000  -0.0000

          k =-0.5000-1.0415 1.2275 (  5566 PWs)   bands (ev):

    -5.2834  -4.6738  -4.3752  -3.4069  -2.8544  -1.4906  -0.8189  -0.7363
     0.2558   0.6443   2.6669   3.2286   3.2729   5.0078   5.5782   5.7636
     6.3080   6.3596   6.5637   6.6420   6.7226   6.9622   7.4985   8.6972
    13.5718  13.8767  17.2279  17.2550  18.8676

     occupation numbers 
     1.0000   1.0000   1.0000   1.0000   1.0000   1.0000   1.0000   1.0000
     1.0000   1.0000   1.0000   1.0000   1.0000   1.0000   1.0000   1.0000
     1.0000   1.0000   1.0000   1.0000   1.0000   1.0000   1.0000   1.0000
    -0.0000  -0.0000  -0.0000  -0.0000  -0.0000

          k =-0.5000-1.0415-1.4028 (  5568 PWs)   bands (ev):

    -4.8355  -4.5414  -4.5019  -2.9895  -2.8071  -1.7118  -0.7944  -0.7184
    -0.1844   0.2644   2.8437   2.9679   3.3416   5.0231   5.5198   5.7755
     6.3569   6.3996   6.4072   6.4669   6.7173   6.9959   7.4596   8.6938
    13.4305  13.7635  17.1637  17.2108  18.9693

     occupation numbers 
     1.0000   1.0000   1.0000   1.0000   1.0000   1.0000   1.0000   1.0000
     1.0000   1.0000   1.0000   1.0000   1.0000   1.0000   1.0000   1.0000
     1.0000   1.0000   1.0000   1.0000   1.0000   1.0000   1.0000   1.0000
    -0.0002  -0.0000  -0.0000  -0.0000  -0.0000

     the Fermi energy is    12.2727 ev

!    total energy              =    -221.00169281 Ry
     Harris-Foulkes estimate   =    -221.00169281 Ry
     estimated scf accuracy    <          9.7E-11 Ry

     total all-electron energy =      -914.170859 Ry

     The total energy is the sum of the following terms:

     one-electron contribution =      33.89122000 Ry
     hartree contribution      =      17.02350218 Ry
     xc contribution           =     -55.89595111 Ry
     ewald contribution        =    -142.04459755 Ry
     one-center paw contrib.   =     -73.97586675 Ry
      -> PAW hartree energy AE =       8.59679661 Ry
      -> PAW hartree energy PS =      -8.58876114 Ry
      -> PAW xc energy AE      =     -10.45025072 Ry
      -> PAW xc energy PS      =       4.28035527 Ry
      -> total E_H with PAW    =      17.03153766 Ry
      -> total E_XC with PAW   =     -62.06584655 Ry
     smearing contrib. (-TS)   =       0.00000041 Ry

     convergence has been achieved in  11 iterations

     Forces acting on atoms (cartesian axes, Ry/au):

     atom    1 type  1   force =     0.00009934    0.00017730    0.00000000
     atom    2 type  1   force =     0.00020432    0.00000350    0.00000000
     atom    3 type  1   force =    -0.00020432   -0.00000350    0.00000000
     atom    4 type  1   force =    -0.00009934   -0.00017730    0.00000000
     atom    5 type  1   force =    -0.00048301    0.00011972    0.00000000
     atom    6 type  1   force =     0.00044600    0.00043288    0.00000000
     atom    7 type  1   force =    -0.00044600   -0.00043288    0.00000000
     atom    8 type  1   force =     0.00048301   -0.00011972    0.00000000
     atom    9 type  1   force =     0.00067080   -0.00043934    0.00000000
     atom   10 type  1   force =     0.00042019    0.00035207    0.00000000
     atom   11 type  1   force =    -0.00042019   -0.00035207    0.00000000
     atom   12 type  1   force =    -0.00067080    0.00043934    0.00000000
     The non-local contrib.  to forces
     atom    1 type  1   force =    -0.00022882    0.01431921    0.00000000
     atom    2 type  1   force =     0.00788282   -0.01186237    0.00000000
     atom    3 type  1   force =    -0.00788282    0.01186237    0.00000000
     atom    4 type  1   force =     0.00022882   -0.01431921    0.00000000
     atom    5 type  1   force =    -0.00831724    0.00875566    0.00000000
     atom    6 type  1   force =     0.00197650    0.01196328    0.00000000
     atom    7 type  1   force =    -0.00197650   -0.01196328    0.00000000
     atom    8 type  1   force =     0.00831724   -0.00875566    0.00000000
     atom    9 type  1   force =    -0.08602314    0.00365574    0.00000000
     atom   10 type  1   force =    -0.06898073   -0.05164474    0.00000000
     atom   11 type  1   force =     0.06898073    0.05164474    0.00000000
     atom   12 type  1   force =     0.08602314   -0.00365574    0.00000000
     The ionic contribution  to forces
     atom    1 type  1   force =    -0.15896564   -1.14125420    0.00000000
     atom    2 type  1   force =    -0.77448032    0.85317727    0.00000000
     atom    3 type  1   force =     0.77448032   -0.85317727   -0.00000000
     atom    4 type  1   force =     0.15896564    1.14125420   -0.00000000
     atom    5 type  1   force =    -0.14434803   -1.55140155    0.00000000
     atom    6 type  1   force =     0.99354672   -1.20022832   -0.00000000
     atom    7 type  1   force =    -0.99354672    1.20022832   -0.00000000
     atom    8 type  1   force =     0.14434803    1.55140155   -0.00000000
     atom    9 type  1   force =     0.29911869    0.74691597    0.00000000
     atom   10 type  1   force =     0.66802519   -0.44843930    0.00000000
     atom   11 type  1   force =    -0.66802519    0.44843930   -0.00000000
     atom   12 type  1   force =    -0.29911869   -0.74691597   -0.00000000
     The local contribution  to forces
     atom    1 type  1   force =     0.16002981    1.12686599    0.00000000
     atom    2 type  1   force =     0.76724515   -0.84079450   -0.00000000
     atom    3 type  1   force =    -0.76724515    0.84079450    0.00000000
     atom    4 type  1   force =    -0.16002981   -1.12686599    0.00000000
     atom    5 type  1   force =     0.15200305    1.54155591    0.00000000
     atom    6 type  1   force =    -0.99437584    1.18773095    0.00000000
     atom    7 type  1   force =     0.99437584   -1.18773095    0.00000000
     atom    8 type  1   force =    -0.15200305   -1.54155591   -0.00000000
     atom    9 type  1   force =    -0.21604598   -0.75012625    0.00000000
     atom   10 type  1   force =    -0.60124780    0.49808795    0.00000000
     atom   11 type  1   force =     0.60124780   -0.49808795    0.00000000
     atom   12 type  1   force =     0.21604598    0.75012625    0.00000000
     The core correction contribution to forces
     atom    1 type  1   force =    -0.00073548    0.00025026   -0.00000000
     atom    2 type  1   force =    -0.00044146   -0.00051766    0.00000000
     atom    3 type  1   force =     0.00044146    0.00051766    0.00000000
     atom    4 type  1   force =     0.00073548   -0.00025026    0.00000000
     atom    5 type  1   force =     0.00018133    0.00121409    0.00000000
     atom    6 type  1   force =    -0.00070869    0.00097042    0.00000000
     atom    7 type  1   force =     0.00070869   -0.00097042    0.00000000
     atom    8 type  1   force =    -0.00018133   -0.00121409    0.00000000
     atom    9 type  1   force =     0.00362291   -0.00088241   -0.00000000
     atom   10 type  1   force =     0.00262517    0.00234970   -0.00000000
     atom   11 type  1   force =    -0.00262517   -0.00234970    0.00000000
     atom   12 type  1   force =    -0.00362291    0.00088241   -0.00000000
     The Hubbard contrib.    to forces
     atom    1 type  1   force =     0.00000000    0.00000000    0.00000000
     atom    2 type  1   force =     0.00000000    0.00000000    0.00000000
     atom    3 type  1   force =     0.00000000    0.00000000    0.00000000
     atom    4 type  1   force =     0.00000000    0.00000000    0.00000000
     atom    5 type  1   force =     0.00000000    0.00000000    0.00000000
     atom    6 type  1   force =     0.00000000    0.00000000    0.00000000
     atom    7 type  1   force =     0.00000000    0.00000000    0.00000000
     atom    8 type  1   force =     0.00000000    0.00000000    0.00000000
     atom    9 type  1   force =     0.00000000    0.00000000    0.00000000
     atom   10 type  1   force =     0.00000000    0.00000000    0.00000000
     atom   11 type  1   force =     0.00000000    0.00000000    0.00000000
     atom   12 type  1   force =     0.00000000    0.00000000    0.00000000
     The SCF correction term to forces
     atom    1 type  1   force =    -0.00000054   -0.00000396    0.00000000
     atom    2 type  1   force =    -0.00000187    0.00000076   -0.00000000
     atom    3 type  1   force =     0.00000187   -0.00000076   -0.00000000
     atom    4 type  1   force =     0.00000054    0.00000396    0.00000000
     atom    5 type  1   force =    -0.00000211   -0.00000439   -0.00000000
     atom    6 type  1   force =     0.00000731   -0.00000345    0.00000000
     atom    7 type  1   force =    -0.00000731    0.00000345    0.00000000
     atom    8 type  1   force =     0.00000211    0.00000439   -0.00000000
     atom    9 type  1   force =    -0.00000168   -0.00000239    0.00000000
     atom   10 type  1   force =    -0.00000164   -0.00000152   -0.00000000
     atom   11 type  1   force =     0.00000164    0.00000152   -0.00000000
     atom   12 type  1   force =     0.00000168    0.00000239   -0.00000000

     Total force =     0.001822     Total SCF correction =     0.000016


     Computing stress (Cartesian axis) and pressure

          total   stress  (Ry/bohr**3)                   (kbar)     P=    3.16
   0.00002779   0.00000423   0.00000000          4.09      0.62      0.00
   0.00000423   0.00001381   0.00000000          0.62      2.03      0.00
   0.00000000   0.00000000   0.00002289          0.00      0.00      3.37

     kinetic stress (kbar)  16796.57      1.16      0.00
                                1.16  16793.17      0.00
                                0.00      0.00  17474.67

     local   stress (kbar)  -7111.03    350.72      0.00
                              350.72  -8139.18      0.00
                                0.00      0.00   1261.23

     nonloc. stress (kbar)   3980.97     -2.58      0.00
                               -2.58   3988.49      0.00
                                0.00      0.00   3868.23

     hartree stress (kbar)   2088.01   -122.04     -0.00
                             -122.04   2445.79     -0.00
                               -0.00     -0.00    387.78

     exc-cor stress (kbar)   -358.77     -0.34     -0.00
                               -0.34   -357.77      0.00
                               -0.00      0.00   -397.62

     corecor stress (kbar)  -3887.48      0.72      0.00
                                0.72  -3889.81     -0.00
                                0.00     -0.00  -3867.93

     ewald   stress (kbar) -11504.18   -227.02     -0.00
                             -227.02 -10838.65      0.00
                               -0.00      0.00 -18723.00

     hubbard stress (kbar)      0.00      0.00      0.00
                                0.00      0.00      0.00
                                0.00      0.00      0.00

     london  stress (kbar)      0.00      0.00      0.00
                                0.00      0.00      0.00
                                0.00      0.00      0.00

     DFT-D3  stress (kbar)      0.00      0.00      0.00
                                0.00      0.00      0.00
                                0.00      0.00      0.00

     XDM     stress (kbar)      0.00      0.00      0.00
                                0.00      0.00      0.00
                                0.00      0.00      0.00

     dft-nl  stress (kbar)      0.00      0.00      0.00
                                0.00      0.00      0.00
                                0.00      0.00      0.00

     TS-vdW  stress (kbar)      0.00      0.00      0.00
                                0.00      0.00      0.00
                                0.00      0.00      0.00



     Writing output data file 12-172.save
 
     init_run     :     10.33s CPU     10.96s WALL (       1 calls)
     electrons    :    245.80s CPU    252.69s WALL (       1 calls)
     forces       :      2.14s CPU      2.19s WALL (       1 calls)
     stress       :      7.19s CPU      7.25s WALL (       1 calls)

     Called by init_run:
     wfcinit      :      9.53s CPU      9.98s WALL (       1 calls)
     wfcinit:atom :      0.09s CPU      0.09s WALL (      57 calls)
     wfcinit:wfcr :      9.05s CPU      9.47s WALL (      57 calls)
     potinit      :      0.21s CPU      0.23s WALL (       1 calls)

     Called by electrons:
     c_bands      :    215.07s CPU    220.89s WALL (      11 calls)
     sum_band     :     29.40s CPU     30.32s WALL (      11 calls)
     v_of_rho     :      0.41s CPU      0.43s WALL (      12 calls)
     v_h          :      0.03s CPU      0.03s WALL (      12 calls)
     v_xc         :      0.44s CPU      0.46s WALL (      14 calls)
     newd         :      0.28s CPU      0.30s WALL (      12 calls)
     PAW_pot      :      0.55s CPU      0.58s WALL (      12 calls)
     mix_rho      :      0.09s CPU      0.10s WALL (      11 calls)

     Called by c_bands:
     init_us_2    :      2.54s CPU      2.62s WALL (    1425 calls)
     cegterg      :    190.38s CPU    193.87s WALL (     627 calls)

     Called by sum_band:
     sum_band:bec :      0.05s CPU      0.05s WALL (     627 calls)
     addusdens    :      0.32s CPU      0.32s WALL (      11 calls)

     Called by *egterg:
     h_psi        :    150.77s CPU    153.91s WALL (    2602 calls)
     s_psi        :      9.99s CPU     10.12s WALL (    2602 calls)
     g_psi        :      0.64s CPU      0.64s WALL (    1918 calls)
     cdiaghg      :     10.31s CPU     10.42s WALL (    2545 calls)
     cegterg:over :     10.00s CPU     10.32s WALL (    1918 calls)
     cegterg:upda :      6.84s CPU      6.89s WALL (    1918 calls)
     cegterg:last :      2.88s CPU      2.90s WALL (     627 calls)

     Called by h_psi:
     h_psi:pot    :    149.65s CPU    152.76s WALL (    2602 calls)
     h_psi:calbec :     10.92s CPU     11.08s WALL (    2602 calls)
     vloc_psi     :    128.90s CPU    131.77s WALL (    2602 calls)
     add_vuspsi   :      9.80s CPU      9.89s WALL (    2602 calls)

     General routines
     calbec       :     15.92s CPU     16.23s WALL (    3514 calls)
     fft          :      0.38s CPU      0.41s WALL (     180 calls)
     fftw         :    141.77s CPU    145.20s WALL (  124307 calls)
 
     Parallel routines
     fft_scatt_xy :      9.15s CPU      9.29s WALL (  124487 calls)
     fft_scatt_yz :     25.01s CPU     25.84s WALL (  124487 calls)

     PAW routines
     PAW_pot      :      0.55s CPU      0.58s WALL (      12 calls)
     PAW_symme    :      0.00s CPU      0.00s WALL (      23 calls)
 
     PWSCF        :  4m27.13s CPU     4m40.76s WALL

 
   This run was terminated on:   3:37:30   7Jul2019            

=------------------------------------------------------------------------------=
   JOB DONE.
=------------------------------------------------------------------------------=
